ITEM: TIMESTEP
0
ITEM: NUMBER OF ATOMS
24000
ITEM: BOX BOUNDS pp pp pp
-1.0000000000000000e+01 1.0000000000000000e+01
-1.0000000000000000e+01 1.0000000000000000e+01
-1.0000000000000000e+01 1.0000000000000000e+01
ITEM: ATOMS id type xs ys zs
1 1 0.0436853 0.0751553 0.0436853
2 1 0.0751553 0.0751553 0.0436853
841 1 0.0436853 0.0751553 0.0751553
842 1 0.0751553 0.0751553 0.0751553
7200 2 0.00371784 0.00371784 0.00371784
7202 2 0.0162819 0.00371784 0.00371784
7204 2 0.0288461 0.00371784 0.00371784
7206 2 0.0414102 0.00371784 0.00371784
7208 2 0.0539743 0.00371784 0.00371784
7210 2 0.0665384 0.00371784 0.00371784
7360 2 0.00371784 0.00371784 0.0162819
7362 2 0.0162819 0.00371784 0.0162819
7364 2 0.0288461 0.00371784 0.0162819
7366 2 0.0414102 0.00371784 0.0162819
7368 2 0.0539743 0.00371784 0.0162819
7370 2 0.0665384 0.00371784 0.0162819
7520 2 0.00371784 0.00371784 0.0288461
7522 2 0.0162819 0.00371784 0.0288461
7524 2 0.0288461 0.00371784 0.0288461
7526 2 0.0414102 0.00371784 0.0288461
7528 2 0.0539743 0.00371784 0.0288461
7530 2 0.0665384 0.00371784 0.0288461
7680 2 0.00371784 0.00371784 0.0414102
7682 2 0.0162819 0.00371784 0.0414102
7684 2 0.0288461 0.00371784 0.0414102
7686 2 0.0414102 0.00371784 0.0414102
7688 2 0.0539743 0.00371784 0.0414102
7690 2 0.0665384 0.00371784 0.0414102
7840 2 0.00371784 0.00371784 0.0539743
7842 2 0.0162819 0.00371784 0.0539743
7844 2 0.0288461 0.00371784 0.0539743
7846 2 0.0414102 0.00371784 0.0539743
7848 2 0.0539743 0.00371784 0.0539743
7850 2 0.0665384 0.00371784 0.0539743
8000 2 0.00371784 0.00371784 0.0665384
8002 2 0.0162819 0.00371784 0.0665384
8004 2 0.0288461 0.00371784 0.0665384
8006 2 0.0414102 0.00371784 0.0665384
8008 2 0.0539743 0.00371784 0.0665384
8010 2 0.0665384 0.00371784 0.0665384
8160 2 0.00371784 0.00371784 0.0791025
8162 2 0.0162819 0.00371784 0.0791025
8164 2 0.0288461 0.00371784 0.0791025
8166 2 0.0414102 0.00371784 0.0791025
8168 2 0.0539743 0.00371784 0.0791025
8170 2 0.0665384 0.00371784 0.0791025
3 1 0.106625 0.0751553 0.0436853
4 1 0.138095 0.0751553 0.0436853
843 1 0.106625 0.0751553 0.0751553
844 1 0.138095 0.0751553 0.0751553
7212 2 0.0791025 0.00371784 0.00371784
7214 2 0.0916666 0.00371784 0.00371784
7216 2 0.104231 0.00371784 0.00371784
7218 2 0.116795 0.00371784 0.00371784
7220 2 0.129359 0.00371784 0.00371784
7222 2 0.141923 0.00371784 0.00371784
7372 2 0.0791025 0.00371784 0.0162819
7374 2 0.0916666 0.00371784 0.0162819
7376 2 0.104231 0.00371784 0.0162819
7378 2 0.116795 0.00371784 0.0162819
7380 2 0.129359 0.00371784 0.0162819
7382 2 0.141923 0.00371784 0.0162819
7532 2 0.0791025 0.00371784 0.0288461
7534 2 0.0916666 0.00371784 0.0288461
7536 2 0.104231 0.00371784 0.0288461
7538 2 0.116795 0.00371784 0.0288461
7540 2 0.129359 0.00371784 0.0288461
7542 2 0.141923 0.00371784 0.0288461
7692 2 0.0791025 0.00371784 0.0414102
7694 2 0.0916666 0.00371784 0.0414102
7696 2 0.104231 0.00371784 0.0414102
7698 2 0.116795 0.00371784 0.0414102
7700 2 0.129359 0.00371784 0.0414102
7702 2 0.141923 0.00371784 0.0414102
7852 2 0.0791025 0.00371784 0.0539743
7854 2 0.0916666 0.00371784 0.0539743
7856 2 0.104231 0.00371784 0.0539743
7858 2 0.116795 0.00371784 0.0539743
7860 2 0.129359 0.00371784 0.0539743
7862 2 0.141923 0.00371784 0.0539743
8012 2 0.0791025 0.00371784 0.0665384
8014 2 0.0916666 0.00371784 0.0665384
8016 2 0.104231 0.00371784 0.0665384
8018 2 0.116795 0.00371784 0.0665384
8020 2 0.129359 0.00371784 0.0665384
8022 2 0.141923 0.00371784 0.0665384
8172 2 0.0791025 0.00371784 0.0791025
8174 2 0.0916666 0.00371784 0.0791025
8176 2 0.104231 0.00371784 0.0791025
8178 2 0.116795 0.00371784 0.0791025
8180 2 0.129359 0.00371784 0.0791025
8182 2 0.141923 0.00371784 0.0791025
5 1 0.169565 0.0751553 0.0436853
6 1 0.201035 0.0751553 0.0436853
845 1 0.169565 0.0751553 0.0751553
846 1 0.201035 0.0751553 0.0751553
7224 2 0.154487 0.00371784 0.00371784
7226 2 0.167051 0.00371784 0.00371784
7228 2 0.179615 0.00371784 0.00371784
7230 2 0.192179 0.00371784 0.00371784
7232 2 0.204744 0.00371784 0.00371784
7234 2 0.217308 0.00371784 0.00371784
7236 2 0.229872 0.00371784 0.00371784
7384 2 0.154487 0.00371784 0.0162819
7386 2 0.167051 0.00371784 0.0162819
7388 2 0.179615 0.00371784 0.0162819
7390 2 0.192179 0.00371784 0.0162819
7392 2 0.204744 0.00371784 0.0162819
7394 2 0.217308 0.00371784 0.0162819
7396 2 0.229872 0.00371784 0.0162819
7544 2 0.154487 0.00371784 0.0288461
7546 2 0.167051 0.00371784 0.0288461
7548 2 0.179615 0.00371784 0.0288461
7550 2 0.192179 0.00371784 0.0288461
7552 2 0.204744 0.00371784 0.0288461
7554 2 0.217308 0.00371784 0.0288461
7556 2 0.229872 0.00371784 0.0288461
7704 2 0.154487 0.00371784 0.0414102
7706 2 0.167051 0.00371784 0.0414102
7708 2 0.179615 0.00371784 0.0414102
7710 2 0.192179 0.00371784 0.0414102
7712 2 0.204744 0.00371784 0.0414102
7714 2 0.217308 0.00371784 0.0414102
7716 2 0.229872 0.00371784 0.0414102
7864 2 0.154487 0.00371784 0.0539743
7866 2 0.167051 0.00371784 0.0539743
7868 2 0.179615 0.00371784 0.0539743
7870 2 0.192179 0.00371784 0.0539743
7872 2 0.204744 0.00371784 0.0539743
7874 2 0.217308 0.00371784 0.0539743
7876 2 0.229872 0.00371784 0.0539743
8024 2 0.154487 0.00371784 0.0665384
8026 2 0.167051 0.00371784 0.0665384
8028 2 0.179615 0.00371784 0.0665384
8030 2 0.192179 0.00371784 0.0665384
8032 2 0.204744 0.00371784 0.0665384
8034 2 0.217308 0.00371784 0.0665384
8036 2 0.229872 0.00371784 0.0665384
8184 2 0.154487 0.00371784 0.0791025
8186 2 0.167051 0.00371784 0.0791025
8188 2 0.179615 0.00371784 0.0791025
8190 2 0.192179 0.00371784 0.0791025
8192 2 0.204744 0.00371784 0.0791025
8194 2 0.217308 0.00371784 0.0791025
8196 2 0.229872 0.00371784 0.0791025
7 1 0.232505 0.0751553 0.0436853
8 1 0.263975 0.0751553 0.0436853
9 1 0.295445 0.0751553 0.0436853
847 1 0.232505 0.0751553 0.0751553
848 1 0.263975 0.0751553 0.0751553
849 1 0.295445 0.0751553 0.0751553
7238 2 0.242436 0.00371784 0.00371784
7240 2 0.255 0.00371784 0.00371784
7242 2 0.267564 0.00371784 0.00371784
7244 2 0.280128 0.00371784 0.00371784
7246 2 0.292692 0.00371784 0.00371784
7248 2 0.305256 0.00371784 0.00371784
7398 2 0.242436 0.00371784 0.0162819
7400 2 0.255 0.00371784 0.0162819
7402 2 0.267564 0.00371784 0.0162819
7404 2 0.280128 0.00371784 0.0162819
7406 2 0.292692 0.00371784 0.0162819
7408 2 0.305256 0.00371784 0.0162819
7558 2 0.242436 0.00371784 0.0288461
7560 2 0.255 0.00371784 0.0288461
7562 2 0.267564 0.00371784 0.0288461
7564 2 0.280128 0.00371784 0.0288461
7566 2 0.292692 0.00371784 0.0288461
7568 2 0.305256 0.00371784 0.0288461
7718 2 0.242436 0.00371784 0.0414102
7720 2 0.255 0.00371784 0.0414102
7722 2 0.267564 0.00371784 0.0414102
7724 2 0.280128 0.00371784 0.0414102
7726 2 0.292692 0.00371784 0.0414102
7728 2 0.305256 0.00371784 0.0414102
7878 2 0.242436 0.00371784 0.0539743
7880 2 0.255 0.00371784 0.0539743
7882 2 0.267564 0.00371784 0.0539743
7884 2 0.280128 0.00371784 0.0539743
7886 2 0.292692 0.00371784 0.0539743
7888 2 0.305256 0.00371784 0.0539743
8038 2 0.242436 0.00371784 0.0665384
8040 2 0.255 0.00371784 0.0665384
8042 2 0.267564 0.00371784 0.0665384
8044 2 0.280128 0.00371784 0.0665384
8046 2 0.292692 0.00371784 0.0665384
8048 2 0.305256 0.00371784 0.0665384
8198 2 0.242436 0.00371784 0.0791025
8200 2 0.255 0.00371784 0.0791025
8202 2 0.267564 0.00371784 0.0791025
8204 2 0.280128 0.00371784 0.0791025
8206 2 0.292692 0.00371784 0.0791025
8208 2 0.305256 0.00371784 0.0791025
10 1 0.326915 0.0751553 0.0436853
11 1 0.358385 0.0751553 0.0436853
850 1 0.326915 0.0751553 0.0751553
851 1 0.358385 0.0751553 0.0751553
7250 2 0.31782 0.00371784 0.00371784
7252 2 0.330385 0.00371784 0.00371784
7254 2 0.342949 0.00371784 0.00371784
7256 2 0.355513 0.00371784 0.00371784
7258 2 0.368077 0.00371784 0.00371784
7260 2 0.380641 0.00371784 0.00371784
7410 2 0.31782 0.00371784 0.0162819
7412 2 0.330385 0.00371784 0.0162819
7414 2 0.342949 0.00371784 0.0162819
7416 2 0.355513 0.00371784 0.0162819
7418 2 0.368077 0.00371784 0.0162819
7420 2 0.380641 0.00371784 0.0162819
7570 2 0.31782 0.00371784 0.0288461
7572 2 0.330385 0.00371784 0.0288461
7574 2 0.342949 0.00371784 0.0288461
7576 2 0.355513 0.00371784 0.0288461
7578 2 0.368077 0.00371784 0.0288461
7580 2 0.380641 0.00371784 0.0288461
7730 2 0.31782 0.00371784 0.0414102
7732 2 0.330385 0.00371784 0.0414102
7734 2 0.342949 0.00371784 0.0414102
7736 2 0.355513 0.00371784 0.0414102
7738 2 0.368077 0.00371784 0.0414102
7740 2 0.380641 0.00371784 0.0414102
7890 2 0.31782 0.00371784 0.0539743
7892 2 0.330385 0.00371784 0.0539743
7894 2 0.342949 0.00371784 0.0539743
7896 2 0.355513 0.00371784 0.0539743
7898 2 0.368077 0.00371784 0.0539743
7900 2 0.380641 0.00371784 0.0539743
8050 2 0.31782 0.00371784 0.0665384
8052 2 0.330385 0.00371784 0.0665384
8054 2 0.342949 0.00371784 0.0665384
8056 2 0.355513 0.00371784 0.0665384
8058 2 0.368077 0.00371784 0.0665384
8060 2 0.380641 0.00371784 0.0665384
8210 2 0.31782 0.00371784 0.0791025
8212 2 0.330385 0.00371784 0.0791025
8214 2 0.342949 0.00371784 0.0791025
8216 2 0.355513 0.00371784 0.0791025
8218 2 0.368077 0.00371784 0.0791025
8220 2 0.380641 0.00371784 0.0791025
12 1 0.389855 0.0751553 0.0436853
13 1 0.421325 0.0751553 0.0436853
14 1 0.452795 0.0751553 0.0436853
852 1 0.389855 0.0751553 0.0751553
853 1 0.421325 0.0751553 0.0751553
854 1 0.452795 0.0751553 0.0751553
7262 2 0.393205 0.00371784 0.00371784
7264 2 0.405769 0.00371784 0.00371784
7266 2 0.418333 0.00371784 0.00371784
7268 2 0.430897 0.00371784 0.00371784
7270 2 0.443462 0.00371784 0.00371784
7272 2 0.456026 0.00371784 0.00371784
7422 2 0.393205 0.00371784 0.0162819
7424 2 0.405769 0.00371784 0.0162819
7426 2 0.418333 0.00371784 0.0162819
7428 2 0.430897 0.00371784 0.0162819
7430 2 0.443462 0.00371784 0.0162819
7432 2 0.456026 0.00371784 0.0162819
7582 2 0.393205 0.00371784 0.0288461
7584 2 0.405769 0.00371784 0.0288461
7586 2 0.418333 0.00371784 0.0288461
7588 2 0.430897 0.00371784 0.0288461
7590 2 0.443462 0.00371784 0.0288461
7592 2 0.456026 0.00371784 0.0288461
7742 2 0.393205 0.00371784 0.0414102
7744 2 0.405769 0.00371784 0.0414102
7746 2 0.418333 0.00371784 0.0414102
7748 2 0.430897 0.00371784 0.0414102
7750 2 0.443462 0.00371784 0.0414102
7752 2 0.456026 0.00371784 0.0414102
7902 2 0.393205 0.00371784 0.0539743
7904 2 0.405769 0.00371784 0.0539743
7906 2 0.418333 0.00371784 0.0539743
7908 2 0.430897 0.00371784 0.0539743
7910 2 0.443462 0.00371784 0.0539743
7912 2 0.456026 0.00371784 0.0539743
8062 2 0.393205 0.00371784 0.0665384
8064 2 0.405769 0.00371784 0.0665384
8066 2 0.418333 0.00371784 0.0665384
8068 2 0.430897 0.00371784 0.0665384
8070 2 0.443462 0.00371784 0.0665384
8072 2 0.456026 0.00371784 0.0665384
8222 2 0.393205 0.00371784 0.0791025
8224 2 0.405769 0.00371784 0.0791025
8226 2 0.418333 0.00371784 0.0791025
8228 2 0.430897 0.00371784 0.0791025
8230 2 0.443462 0.00371784 0.0791025
8232 2 0.456026 0.00371784 0.0791025
15 1 0.484265 0.0751553 0.0436853
16 1 0.515735 0.0751553 0.0436853
855 1 0.484265 0.0751553 0.0751553
856 1 0.515735 0.0751553 0.0751553
7274 2 0.46859 0.00371784 0.00371784
7276 2 0.481154 0.00371784 0.00371784
7278 2 0.493718 0.00371784 0.00371784
7280 2 0.506282 0.00371784 0.00371784
7282 2 0.518846 0.00371784 0.00371784
7284 2 0.53141 0.00371784 0.00371784
7434 2 0.46859 0.00371784 0.0162819
7436 2 0.481154 0.00371784 0.0162819
7438 2 0.493718 0.00371784 0.0162819
7440 2 0.506282 0.00371784 0.0162819
7442 2 0.518846 0.00371784 0.0162819
7444 2 0.53141 0.00371784 0.0162819
7594 2 0.46859 0.00371784 0.0288461
7596 2 0.481154 0.00371784 0.0288461
7598 2 0.493718 0.00371784 0.0288461
7600 2 0.506282 0.00371784 0.0288461
7602 2 0.518846 0.00371784 0.0288461
7604 2 0.53141 0.00371784 0.0288461
7754 2 0.46859 0.00371784 0.0414102
7756 2 0.481154 0.00371784 0.0414102
7758 2 0.493718 0.00371784 0.0414102
7760 2 0.506282 0.00371784 0.0414102
7762 2 0.518846 0.00371784 0.0414102
7764 2 0.53141 0.00371784 0.0414102
7914 2 0.46859 0.00371784 0.0539743
7916 2 0.481154 0.00371784 0.0539743
7918 2 0.493718 0.00371784 0.0539743
7920 2 0.506282 0.00371784 0.0539743
7922 2 0.518846 0.00371784 0.0539743
7924 2 0.53141 0.00371784 0.0539743
8074 2 0.46859 0.00371784 0.0665384
8076 2 0.481154 0.00371784 0.0665384
8078 2 0.493718 0.00371784 0.0665384
8080 2 0.506282 0.00371784 0.0665384
8082 2 0.518846 0.00371784 0.0665384
8084 2 0.53141 0.00371784 0.0665384
8234 2 0.46859 0.00371784 0.0791025
8236 2 0.481154 0.00371784 0.0791025
8238 2 0.493718 0.00371784 0.0791025
8240 2 0.506282 0.00371784 0.0791025
8242 2 0.518846 0.00371784 0.0791025
8244 2 0.53141 0.00371784 0.0791025
17 1 0.547205 0.0751553 0.0436853
18 1 0.578675 0.0751553 0.0436853
19 1 0.610145 0.0751553 0.0436853
857 1 0.547205 0.0751553 0.0751553
858 1 0.578675 0.0751553 0.0751553
859 1 0.610145 0.0751553 0.0751553
7286 2 0.543974 0.00371784 0.00371784
7288 2 0.556538 0.00371784 0.00371784
7290 2 0.569103 0.00371784 0.00371784
7292 2 0.581667 0.00371784 0.00371784
7294 2 0.594231 0.00371784 0.00371784
7296 2 0.606795 0.00371784 0.00371784
7446 2 0.543974 0.00371784 0.0162819
7448 2 0.556538 0.00371784 0.0162819
7450 2 0.569103 0.00371784 0.0162819
7452 2 0.581667 0.00371784 0.0162819
7454 2 0.594231 0.00371784 0.0162819
7456 2 0.606795 0.00371784 0.0162819
7606 2 0.543974 0.00371784 0.0288461
7608 2 0.556538 0.00371784 0.0288461
7610 2 0.569103 0.00371784 0.0288461
7612 2 0.581667 0.00371784 0.0288461
7614 2 0.594231 0.00371784 0.0288461
7616 2 0.606795 0.00371784 0.0288461
7766 2 0.543974 0.00371784 0.0414102
7768 2 0.556538 0.00371784 0.0414102
7770 2 0.569103 0.00371784 0.0414102
7772 2 0.581667 0.00371784 0.0414102
7774 2 0.594231 0.00371784 0.0414102
7776 2 0.606795 0.00371784 0.0414102
7926 2 0.543974 0.00371784 0.0539743
7928 2 0.556538 0.00371784 0.0539743
7930 2 0.569103 0.00371784 0.0539743
7932 2 0.581667 0.00371784 0.0539743
7934 2 0.594231 0.00371784 0.0539743
7936 2 0.606795 0.00371784 0.0539743
8086 2 0.543974 0.00371784 0.0665384
8088 2 0.556538 0.00371784 0.0665384
8090 2 0.569103 0.00371784 0.0665384
8092 2 0.581667 0.00371784 0.0665384
8094 2 0.594231 0.00371784 0.0665384
8096 2 0.606795 0.00371784 0.0665384
8246 2 0.543974 0.00371784 0.0791025
8248 2 0.556538 0.00371784 0.0791025
8250 2 0.569103 0.00371784 0.0791025
8252 2 0.581667 0.00371784 0.0791025
8254 2 0.594231 0.00371784 0.0791025
8256 2 0.606795 0.00371784 0.0791025
20 1 0.641615 0.0751553 0.0436853
21 1 0.673085 0.0751553 0.0436853
860 1 0.641615 0.0751553 0.0751553
861 1 0.673085 0.0751553 0.0751553
7298 2 0.619359 0.00371784 0.00371784
7300 2 0.631923 0.00371784 0.00371784
7302 2 0.644487 0.00371784 0.00371784
7304 2 0.657051 0.00371784 0.00371784
7306 2 0.669615 0.00371784 0.00371784
7308 2 0.68218 0.00371784 0.00371784
7458 2 0.619359 0.00371784 0.0162819
7460 2 0.631923 0.00371784 0.0162819
7462 2 0.644487 0.00371784 0.0162819
7464 2 0.657051 0.00371784 0.0162819
7466 2 0.669615 0.00371784 0.0162819
7468 2 0.68218 0.00371784 0.0162819
7618 2 0.619359 0.00371784 0.0288461
7620 2 0.631923 0.00371784 0.0288461
7622 2 0.644487 0.00371784 0.0288461
7624 2 0.657051 0.00371784 0.0288461
7626 2 0.669615 0.00371784 0.0288461
7628 2 0.68218 0.00371784 0.0288461
7778 2 0.619359 0.00371784 0.0414102
7780 2 0.631923 0.00371784 0.0414102
7782 2 0.644487 0.00371784 0.0414102
7784 2 0.657051 0.00371784 0.0414102
7786 2 0.669615 0.00371784 0.0414102
7788 2 0.68218 0.00371784 0.0414102
7938 2 0.619359 0.00371784 0.0539743
7940 2 0.631923 0.00371784 0.0539743
7942 2 0.644487 0.00371784 0.0539743
7944 2 0.657051 0.00371784 0.0539743
7946 2 0.669615 0.00371784 0.0539743
7948 2 0.68218 0.00371784 0.0539743
8098 2 0.619359 0.00371784 0.0665384
8100 2 0.631923 0.00371784 0.0665384
8102 2 0.644487 0.00371784 0.0665384
8104 2 0.657051 0.00371784 0.0665384
8106 2 0.669615 0.00371784 0.0665384
8108 2 0.68218 0.00371784 0.0665384
8258 2 0.619359 0.00371784 0.0791025
8260 2 0.631923 0.00371784 0.0791025
8262 2 0.644487 0.00371784 0.0791025
8264 2 0.657051 0.00371784 0.0791025
8266 2 0.669615 0.00371784 0.0791025
8268 2 0.68218 0.00371784 0.0791025
22 1 0.704555 0.0751553 0.0436853
23 1 0.736025 0.0751553 0.0436853
24 1 0.767495 0.0751553 0.0436853
862 1 0.704555 0.0751553 0.0751553
863 1 0.736025 0.0751553 0.0751553
864 1 0.767495 0.0751553 0.0751553
7310 2 0.694744 0.00371784 0.00371784
7312 2 0.707308 0.00371784 0.00371784
7314 2 0.719872 0.00371784 0.00371784
7316 2 0.732436 0.00371784 0.00371784
7318 2 0.745 0.00371784 0.00371784
7320 2 0.757564 0.00371784 0.00371784
7470 2 0.694744 0.00371784 0.0162819
7472 2 0.707308 0.00371784 0.0162819
7474 2 0.719872 0.00371784 0.0162819
7476 2 0.732436 0.00371784 0.0162819
7478 2 0.745 0.00371784 0.0162819
7480 2 0.757564 0.00371784 0.0162819
7630 2 0.694744 0.00371784 0.0288461
7632 2 0.707308 0.00371784 0.0288461
7634 2 0.719872 0.00371784 0.0288461
7636 2 0.732436 0.00371784 0.0288461
7638 2 0.745 0.00371784 0.0288461
7640 2 0.757564 0.00371784 0.0288461
7790 2 0.694744 0.00371784 0.0414102
7792 2 0.707308 0.00371784 0.0414102
7794 2 0.719872 0.00371784 0.0414102
7796 2 0.732436 0.00371784 0.0414102
7798 2 0.745 0.00371784 0.0414102
7800 2 0.757564 0.00371784 0.0414102
7950 2 0.694744 0.00371784 0.0539743
7952 2 0.707308 0.00371784 0.0539743
7954 2 0.719872 0.00371784 0.0539743
7956 2 0.732436 0.00371784 0.0539743
7958 2 0.745 0.00371784 0.0539743
7960 2 0.757564 0.00371784 0.0539743
8110 2 0.694744 0.00371784 0.0665384
8112 2 0.707308 0.00371784 0.0665384
8114 2 0.719872 0.00371784 0.0665384
8116 2 0.732436 0.00371784 0.0665384
8118 2 0.745 0.00371784 0.0665384
8120 2 0.757564 0.00371784 0.0665384
8270 2 0.694744 0.00371784 0.0791025
8272 2 0.707308 0.00371784 0.0791025
8274 2 0.719872 0.00371784 0.0791025
8276 2 0.732436 0.00371784 0.0791025
8278 2 0.745 0.00371784 0.0791025
8280 2 0.757564 0.00371784 0.0791025
25 1 0.798965 0.0751553 0.0436853
26 1 0.830435 0.0751553 0.0436853
865 1 0.798965 0.0751553 0.0751553
866 1 0.830435 0.0751553 0.0751553
7322 2 0.770128 0.00371784 0.00371784
7324 2 0.782692 0.00371784 0.00371784
7326 2 0.795256 0.00371784 0.00371784
7328 2 0.807821 0.00371784 0.00371784
7330 2 0.820385 0.00371784 0.00371784
7332 2 0.832949 0.00371784 0.00371784
7334 2 0.845513 0.00371784 0.00371784
7482 2 0.770128 0.00371784 0.0162819
7484 2 0.782692 0.00371784 0.0162819
7486 2 0.795256 0.00371784 0.0162819
7488 2 0.807821 0.00371784 0.0162819
7490 2 0.820385 0.00371784 0.0162819
7492 2 0.832949 0.00371784 0.0162819
7494 2 0.845513 0.00371784 0.0162819
7642 2 0.770128 0.00371784 0.0288461
7644 2 0.782692 0.00371784 0.0288461
7646 2 0.795256 0.00371784 0.0288461
7648 2 0.807821 0.00371784 0.0288461
7650 2 0.820385 0.00371784 0.0288461
7652 2 0.832949 0.00371784 0.0288461
7654 2 0.845513 0.00371784 0.0288461
7802 2 0.770128 0.00371784 0.0414102
7804 2 0.782692 0.00371784 0.0414102
7806 2 0.795256 0.00371784 0.0414102
7808 2 0.807821 0.00371784 0.0414102
7810 2 0.820385 0.00371784 0.0414102
7812 2 0.832949 0.00371784 0.0414102
7814 2 0.845513 0.00371784 0.0414102
7962 2 0.770128 0.00371784 0.0539743
7964 2 0.782692 0.00371784 0.0539743
7966 2 0.795256 0.00371784 0.0539743
7968 2 0.807821 0.00371784 0.0539743
7970 2 0.820385 0.00371784 0.0539743
7972 2 0.832949 0.00371784 0.0539743
7974 2 0.845513 0.00371784 0.0539743
8122 2 0.770128 0.00371784 0.0665384
8124 2 0.782692 0.00371784 0.0665384
8126 2 0.795256 0.00371784 0.0665384
8128 2 0.807821 0.00371784 0.0665384
8130 2 0.820385 0.00371784 0.0665384
8132 2 0.832949 0.00371784 0.0665384
8134 2 0.845513 0.00371784 0.0665384
8282 2 0.770128 0.00371784 0.0791025
8284 2 0.782692 0.00371784 0.0791025
8286 2 0.795256 0.00371784 0.0791025
8288 2 0.807821 0.00371784 0.0791025
8290 2 0.820385 0.00371784 0.0791025
8292 2 0.832949 0.00371784 0.0791025
8294 2 0.845513 0.00371784 0.0791025
27 1 0.861905 0.0751553 0.0436853
28 1 0.893375 0.0751553 0.0436853
867 1 0.861905 0.0751553 0.0751553
868 1 0.893375 0.0751553 0.0751553
7336 2 0.858077 0.00371784 0.00371784
7338 2 0.870641 0.00371784 0.00371784
7340 2 0.883205 0.00371784 0.00371784
7342 2 0.895769 0.00371784 0.00371784
7344 2 0.908333 0.00371784 0.00371784
7346 2 0.920898 0.00371784 0.00371784
7496 2 0.858077 0.00371784 0.0162819
7498 2 0.870641 0.00371784 0.0162819
7500 2 0.883205 0.00371784 0.0162819
7502 2 0.895769 0.00371784 0.0162819
7504 2 0.908333 0.00371784 0.0162819
7506 2 0.920898 0.00371784 0.0162819
7656 2 0.858077 0.00371784 0.0288461
7658 2 0.870641 0.00371784 0.0288461
7660 2 0.883205 0.00371784 0.0288461
7662 2 0.895769 0.00371784 0.0288461
7664 2 0.908333 0.00371784 0.0288461
7666 2 0.920898 0.00371784 0.0288461
7816 2 0.858077 0.00371784 0.0414102
7818 2 0.870641 0.00371784 0.0414102
7820 2 0.883205 0.00371784 0.0414102
7822 2 0.895769 0.00371784 0.0414102
7824 2 0.908333 0.00371784 0.0414102
7826 2 0.920898 0.00371784 0.0414102
7976 2 0.858077 0.00371784 0.0539743
7978 2 0.870641 0.00371784 0.0539743
7980 2 0.883205 0.00371784 0.0539743
7982 2 0.895769 0.00371784 0.0539743
7984 2 0.908333 0.00371784 0.0539743
7986 2 0.920898 0.00371784 0.0539743
8136 2 0.858077 0.00371784 0.0665384
8138 2 0.870641 0.00371784 0.0665384
8140 2 0.883205 0.00371784 0.0665384
8142 2 0.895769 0.00371784 0.0665384
8144 2 0.908333 0.00371784 0.0665384
8146 2 0.920898 0.00371784 0.0665384
8296 2 0.858077 0.00371784 0.0791025
8298 2 0.870641 0.00371784 0.0791025
8300 2 0.883205 0.00371784 0.0791025
8302 2 0.895769 0.00371784 0.0791025
8304 2 0.908333 0.00371784 0.0791025
8306 2 0.920898 0.00371784 0.0791025
29 1 0.924845 0.0751553 0.0436853
30 1 0.956315 0.0751553 0.0436853
869 1 0.924845 0.0751553 0.0751553
870 1 0.956315 0.0751553 0.0751553
7348 2 0.933462 0.00371784 0.00371784
7350 2 0.946026 0.00371784 0.00371784
7352 2 0.95859 0.00371784 0.00371784
7354 2 0.971154 0.00371784 0.00371784
7356 2 0.983718 0.00371784 0.00371784
7358 2 0.996282 0.00371784 0.00371784
7508 2 0.933462 0.00371784 0.0162819
7510 2 0.946026 0.00371784 0.0162819
7512 2 0.95859 0.00371784 0.0162819
7514 2 0.971154 0.00371784 0.0162819
7516 2 0.983718 0.00371784 0.0162819
7518 2 0.996282 0.00371784 0.0162819
7668 2 0.933462 0.00371784 0.0288461
7670 2 0.946026 0.00371784 0.0288461
7672 2 0.95859 0.00371784 0.0288461
7674 2 0.971154 0.00371784 0.0288461
7676 2 0.983718 0.00371784 0.0288461
7678 2 0.996282 0.00371784 0.0288461
7828 2 0.933462 0.00371784 0.0414102
7830 2 0.946026 0.00371784 0.0414102
7832 2 0.95859 0.00371784 0.0414102
7834 2 0.971154 0.00371784 0.0414102
7836 2 0.983718 0.00371784 0.0414102
7838 2 0.996282 0.00371784 0.0414102
7988 2 0.933462 0.00371784 0.0539743
7990 2 0.946026 0.00371784 0.0539743
7992 2 0.95859 0.00371784 0.0539743
7994 2 0.971154 0.00371784 0.0539743
7996 2 0.983718 0.00371784 0.0539743
7998 2 0.996282 0.00371784 0.0539743
8148 2 0.933462 0.00371784 0.0665384
8150 2 0.946026 0.00371784 0.0665384
8152 2 0.95859 0.00371784 0.0665384
8154 2 0.971154 0.00371784 0.0665384
8156 2 0.983718 0.00371784 0.0665384
8158 2 0.996282 0.00371784 0.0665384
8308 2 0.933462 0.00371784 0.0791025
8310 2 0.946026 0.00371784 0.0791025
8312 2 0.95859 0.00371784 0.0791025
8314 2 0.971154 0.00371784 0.0791025
8316 2 0.983718 0.00371784 0.0791025
8318 2 0.996282 0.00371784 0.0791025
31 1 0.0436853 0.106625 0.0436853
32 1 0.0751553 0.106625 0.0436853
61 1 0.0436853 0.138095 0.0436853
62 1 0.0751553 0.138095 0.0436853
871 1 0.0436853 0.106625 0.0751553
872 1 0.0751553 0.106625 0.0751553
901 1 0.0436853 0.138095 0.0751553
902 1 0.0751553 0.138095 0.0751553
33 1 0.106625 0.106625 0.0436853
34 1 0.138095 0.106625 0.0436853
63 1 0.106625 0.138095 0.0436853
64 1 0.138095 0.138095 0.0436853
873 1 0.106625 0.106625 0.0751553
874 1 0.138095 0.106625 0.0751553
903 1 0.106625 0.138095 0.0751553
904 1 0.138095 0.138095 0.0751553
35 1 0.169565 0.106625 0.0436853
36 1 0.201035 0.106625 0.0436853
65 1 0.169565 0.138095 0.0436853
66 1 0.201035 0.138095 0.0436853
875 1 0.169565 0.106625 0.0751553
876 1 0.201035 0.106625 0.0751553
905 1 0.169565 0.138095 0.0751553
906 1 0.201035 0.138095 0.0751553
37 1 0.232505 0.106625 0.0436853
38 1 0.263975 0.106625 0.0436853
39 1 0.295445 0.106625 0.0436853
67 1 0.232505 0.138095 0.0436853
68 1 0.263975 0.138095 0.0436853
69 1 0.295445 0.138095 0.0436853
877 1 0.232505 0.106625 0.0751553
878 1 0.263975 0.106625 0.0751553
879 1 0.295445 0.106625 0.0751553
907 1 0.232505 0.138095 0.0751553
908 1 0.263975 0.138095 0.0751553
909 1 0.295445 0.138095 0.0751553
40 1 0.326915 0.106625 0.0436853
41 1 0.358385 0.106625 0.0436853
70 1 0.326915 0.138095 0.0436853
71 1 0.358385 0.138095 0.0436853
880 1 0.326915 0.106625 0.0751553
881 1 0.358385 0.106625 0.0751553
910 1 0.326915 0.138095 0.0751553
911 1 0.358385 0.138095 0.0751553
42 1 0.389855 0.106625 0.0436853
43 1 0.421325 0.106625 0.0436853
44 1 0.452795 0.106625 0.0436853
72 1 0.389855 0.138095 0.0436853
73 1 0.421325 0.138095 0.0436853
74 1 0.452795 0.138095 0.0436853
882 1 0.389855 0.106625 0.0751553
883 1 0.421325 0.106625 0.0751553
884 1 0.452795 0.106625 0.0751553
912 1 0.389855 0.138095 0.0751553
913 1 0.421325 0.138095 0.0751553
914 1 0.452795 0.138095 0.0751553
45 1 0.484265 0.106625 0.0436853
46 1 0.515735 0.106625 0.0436853
75 1 0.484265 0.138095 0.0436853
76 1 0.515735 0.138095 0.0436853
885 1 0.484265 0.106625 0.0751553
886 1 0.515735 0.106625 0.0751553
915 1 0.484265 0.138095 0.0751553
916 1 0.515735 0.138095 0.0751553
47 1 0.547205 0.106625 0.0436853
48 1 0.578675 0.106625 0.0436853
49 1 0.610145 0.106625 0.0436853
77 1 0.547205 0.138095 0.0436853
78 1 0.578675 0.138095 0.0436853
79 1 0.610145 0.138095 0.0436853
887 1 0.547205 0.106625 0.0751553
888 1 0.578675 0.106625 0.0751553
889 1 0.610145 0.106625 0.0751553
917 1 0.547205 0.138095 0.0751553
918 1 0.578675 0.138095 0.0751553
919 1 0.610145 0.138095 0.0751553
50 1 0.641615 0.106625 0.0436853
51 1 0.673085 0.106625 0.0436853
80 1 0.641615 0.138095 0.0436853
81 1 0.673085 0.138095 0.0436853
890 1 0.641615 0.106625 0.0751553
891 1 0.673085 0.106625 0.0751553
920 1 0.641615 0.138095 0.0751553
921 1 0.673085 0.138095 0.0751553
52 1 0.704555 0.106625 0.0436853
53 1 0.736025 0.106625 0.0436853
54 1 0.767495 0.106625 0.0436853
82 1 0.704555 0.138095 0.0436853
83 1 0.736025 0.138095 0.0436853
84 1 0.767495 0.138095 0.0436853
892 1 0.704555 0.106625 0.0751553
893 1 0.736025 0.106625 0.0751553
894 1 0.767495 0.106625 0.0751553
922 1 0.704555 0.138095 0.0751553
923 1 0.736025 0.138095 0.0751553
924 1 0.767495 0.138095 0.0751553
55 1 0.798965 0.106625 0.0436853
56 1 0.830435 0.106625 0.0436853
85 1 0.798965 0.138095 0.0436853
86 1 0.830435 0.138095 0.0436853
895 1 0.798965 0.106625 0.0751553
896 1 0.830435 0.106625 0.0751553
925 1 0.798965 0.138095 0.0751553
926 1 0.830435 0.138095 0.0751553
57 1 0.861905 0.106625 0.0436853
58 1 0.893375 0.106625 0.0436853
87 1 0.861905 0.138095 0.0436853
88 1 0.893375 0.138095 0.0436853
897 1 0.861905 0.106625 0.0751553
898 1 0.893375 0.106625 0.0751553
927 1 0.861905 0.138095 0.0751553
928 1 0.893375 0.138095 0.0751553
59 1 0.924845 0.106625 0.0436853
60 1 0.956315 0.106625 0.0436853
89 1 0.924845 0.138095 0.0436853
90 1 0.956315 0.138095 0.0436853
899 1 0.924845 0.106625 0.0751553
900 1 0.956315 0.106625 0.0751553
929 1 0.924845 0.138095 0.0751553
930 1 0.956315 0.138095 0.0751553
91 1 0.0436853 0.169565 0.0436853
92 1 0.0751553 0.169565 0.0436853
121 1 0.0436853 0.201035 0.0436853
122 1 0.0751553 0.201035 0.0436853
151 1 0.0436853 0.232505 0.0436853
152 1 0.0751553 0.232505 0.0436853
931 1 0.0436853 0.169565 0.0751553
932 1 0.0751553 0.169565 0.0751553
961 1 0.0436853 0.201035 0.0751553
962 1 0.0751553 0.201035 0.0751553
991 1 0.0436853 0.232505 0.0751553
992 1 0.0751553 0.232505 0.0751553
93 1 0.106625 0.169565 0.0436853
94 1 0.138095 0.169565 0.0436853
123 1 0.106625 0.201035 0.0436853
124 1 0.138095 0.201035 0.0436853
153 1 0.106625 0.232505 0.0436853
154 1 0.138095 0.232505 0.0436853
933 1 0.106625 0.169565 0.0751553
934 1 0.138095 0.169565 0.0751553
963 1 0.106625 0.201035 0.0751553
964 1 0.138095 0.201035 0.0751553
993 1 0.106625 0.232505 0.0751553
994 1 0.138095 0.232505 0.0751553
95 1 0.169565 0.169565 0.0436853
96 1 0.201035 0.169565 0.0436853
125 1 0.169565 0.201035 0.0436853
126 1 0.201035 0.201035 0.0436853
155 1 0.169565 0.232505 0.0436853
156 1 0.201035 0.232505 0.0436853
935 1 0.169565 0.169565 0.0751553
936 1 0.201035 0.169565 0.0751553
965 1 0.169565 0.201035 0.0751553
966 1 0.201035 0.201035 0.0751553
995 1 0.169565 0.232505 0.0751553
996 1 0.201035 0.232505 0.0751553
97 1 0.232505 0.169565 0.0436853
98 1 0.263975 0.169565 0.0436853
99 1 0.295445 0.169565 0.0436853
127 1 0.232505 0.201035 0.0436853
128 1 0.263975 0.201035 0.0436853
129 1 0.295445 0.201035 0.0436853
157 1 0.232505 0.232505 0.0436853
158 1 0.263975 0.232505 0.0436853
159 1 0.295445 0.232505 0.0436853
937 1 0.232505 0.169565 0.0751553
938 1 0.263975 0.169565 0.0751553
939 1 0.295445 0.169565 0.0751553
967 1 0.232505 0.201035 0.0751553
968 1 0.263975 0.201035 0.0751553
969 1 0.295445 0.201035 0.0751553
997 1 0.232505 0.232505 0.0751553
998 1 0.263975 0.232505 0.0751553
999 1 0.295445 0.232505 0.0751553
100 1 0.326915 0.169565 0.0436853
101 1 0.358385 0.169565 0.0436853
130 1 0.326915 0.201035 0.0436853
131 1 0.358385 0.201035 0.0436853
160 1 0.326915 0.232505 0.0436853
161 1 0.358385 0.232505 0.0436853
940 1 0.326915 0.169565 0.0751553
941 1 0.358385 0.169565 0.0751553
970 1 0.326915 0.201035 0.0751553
971 1 0.358385 0.201035 0.0751553
1000 1 0.326915 0.232505 0.0751553
1001 1 0.358385 0.232505 0.0751553
102 1 0.389855 0.169565 0.0436853
103 1 0.421325 0.169565 0.0436853
104 1 0.452795 0.169565 0.0436853
132 1 0.389855 0.201035 0.0436853
133 1 0.421325 0.201035 0.0436853
134 1 0.452795 0.201035 0.0436853
162 1 0.389855 0.232505 0.0436853
163 1 0.421325 0.232505 0.0436853
164 1 0.452795 0.232505 0.0436853
942 1 0.389855 0.169565 0.0751553
943 1 0.421325 0.169565 0.0751553
944 1 0.452795 0.169565 0.0751553
972 1 0.389855 0.201035 0.0751553
973 1 0.421325 0.201035 0.0751553
974 1 0.452795 0.201035 0.0751553
1002 1 0.389855 0.232505 0.0751553
1003 1 0.421325 0.232505 0.0751553
1004 1 0.452795 0.232505 0.0751553