ITEM: TIMESTEP
0
ITEM: NUMBER OF ATOMS
24000
ITEM: BOX BOUNDS pp pp pp
-1.0000000000000000e+01 1.0000000000000000e+01
-1.0000000000000000e+01 1.0000000000000000e+01
-1.0000000000000000e+01 1.0000000000000000e+01
ITEM: ATOMS id type xs ys zs
1 1 0.0436853 0.0436853 0.0436853
2 1 0.0751553 0.0436853 0.0436853
31 1 0.0436853 0.0751553 0.0436853
32 1 0.0751553 0.0751553 0.0436853
901 1 0.0436853 0.0436853 0.0751553
902 1 0.0751553 0.0436853 0.0751553
931 1 0.0436853 0.0751553 0.0751553
932 1 0.0751553 0.0751553 0.0751553
3 1 0.106625 0.0436853 0.0436853
4 1 0.138095 0.0436853 0.0436853
33 1 0.106625 0.0751553 0.0436853
34 1 0.138095 0.0751553 0.0436853
903 1 0.106625 0.0436853 0.0751553
904 1 0.138095 0.0436853 0.0751553
933 1 0.106625 0.0751553 0.0751553
934 1 0.138095 0.0751553 0.0751553
5 1 0.169565 0.0436853 0.0436853
6 1 0.201035 0.0436853 0.0436853
35 1 0.169565 0.0751553 0.0436853
36 1 0.201035 0.0751553 0.0436853
905 1 0.169565 0.0436853 0.0751553
906 1 0.201035 0.0436853 0.0751553
935 1 0.169565 0.0751553 0.0751553
936 1 0.201035 0.0751553 0.0751553
7 1 0.232505 0.0436853 0.0436853
8 1 0.263975 0.0436853 0.0436853
9 1 0.295445 0.0436853 0.0436853
37 1 0.232505 0.0751553 0.0436853
38 1 0.263975 0.0751553 0.0436853
39 1 0.295445 0.0751553 0.0436853
907 1 0.232505 0.0436853 0.0751553
908 1 0.263975 0.0436853 0.0751553
909 1 0.295445 0.0436853 0.0751553
937 1 0.232505 0.0751553 0.0751553
938 1 0.263975 0.0751553 0.0751553
939 1 0.295445 0.0751553 0.0751553
10 1 0.326915 0.0436853 0.0436853
11 1 0.358385 0.0436853 0.0436853
40 1 0.326915 0.0751553 0.0436853
41 1 0.358385 0.0751553 0.0436853
910 1 0.326915 0.0436853 0.0751553
911 1 0.358385 0.0436853 0.0751553
940 1 0.326915 0.0751553 0.0751553
941 1 0.358385 0.0751553 0.0751553
12 1 0.389855 0.0436853 0.0436853
13 1 0.421325 0.0436853 0.0436853
14 1 0.452795 0.0436853 0.0436853
42 1 0.389855 0.0751553 0.0436853
43 1 0.421325 0.0751553 0.0436853
44 1 0.452795 0.0751553 0.0436853
912 1 0.389855 0.0436853 0.0751553
913 1 0.421325 0.0436853 0.0751553
914 1 0.452795 0.0436853 0.0751553
942 1 0.389855 0.0751553 0.0751553
943 1 0.421325 0.0751553 0.0751553
944 1 0.452795 0.0751553 0.0751553
15 1 0.484265 0.0436853 0.0436853
16 1 0.515735 0.0436853 0.0436853
45 1 0.484265 0.0751553 0.0436853
46 1 0.515735 0.0751553 0.0436853
915 1 0.484265 0.0436853 0.0751553
916 1 0.515735 0.0436853 0.0751553
945 1 0.484265 0.0751553 0.0751553
946 1 0.515735 0.0751553 0.0751553
17 1 0.547205 0.0436853 0.0436853
18 1 0.578675 0.0436853 0.0436853
19 1 0.610145 0.0436853 0.0436853
47 1 0.547205 0.0751553 0.0436853
48 1 0.578675 0.0751553 0.0436853
49 1 0.610145 0.0751553 0.0436853
917 1 0.547205 0.0436853 0.0751553
918 1 0.578675 0.0436853 0.0751553
919 1 0.610145 0.0436853 0.0751553
947 1 0.547205 0.0751553 0.0751553
948 1 0.578675 0.0751553 0.0751553
949 1 0.610145 0.0751553 0.0751553
20 1 0.641615 0.0436853 0.0436853
21 1 0.673085 0.0436853 0.0436853
50 1 0.641615 0.0751553 0.0436853
51 1 0.673085 0.0751553 0.0436853
920 1 0.641615 0.0436853 0.0751553
921 1 0.673085 0.0436853 0.0751553
950 1 0.641615 0.0751553 0.0751553
951 1 0.673085 0.0751553 0.0751553
22 1 0.704555 0.0436853 0.0436853
23 1 0.736025 0.0436853 0.0436853
24 1 0.767495 0.0436853 0.0436853
52 1 0.704555 0.0751553 0.0436853
53 1 0.736025 0.0751553 0.0436853
54 1 0.767495 0.0751553 0.0436853
922 1 0.704555 0.0436853 0.0751553
923 1 0.736025 0.0436853 0.0751553
924 1 0.767495 0.0436853 0.0751553
952 1 0.704555 0.0751553 0.0751553
953 1 0.736025 0.0751553 0.0751553
954 1 0.767495 0.0751553 0.0751553
25 1 0.798965 0.0436853 0.0436853
26 1 0.830435 0.0436853 0.0436853
55 1 0.798965 0.0751553 0.0436853
56 1 0.830435 0.0751553 0.0436853
925 1 0.798965 0.0436853 0.0751553
926 1 0.830435 0.0436853 0.0751553
955 1 0.798965 0.0751553 0.0751553
956 1 0.830435 0.0751553 0.0751553
27 1 0.861905 0.0436853 0.0436853
28 1 0.893375 0.0436853 0.0436853
57 1 0.861905 0.0751553 0.0436853
58 1 0.893375 0.0751553 0.0436853
927 1 0.861905 0.0436853 0.0751553
928 1 0.893375 0.0436853 0.0751553
957 1 0.861905 0.0751553 0.0751553
958 1 0.893375 0.0751553 0.0751553
29 1 0.924845 0.0436853 0.0436853
30 1 0.956315 0.0436853 0.0436853
59 1 0.924845 0.0751553 0.0436853
60 1 0.956315 0.0751553 0.0436853
929 1 0.924845 0.0436853 0.0751553
930 1 0.956315 0.0436853 0.0751553
959 1 0.924845 0.0751553 0.0751553
960 1 0.956315 0.0751553 0.0751553
61 1 0.0436853 0.106625 0.0436853
62 1 0.0751553 0.106625 0.0436853
91 1 0.0436853 0.138095 0.0436853
92 1 0.0751553 0.138095 0.0436853
961 1 0.0436853 0.106625 0.0751553
962 1 0.0751553 0.106625 0.0751553
991 1 0.0436853 0.138095 0.0751553
992 1 0.0751553 0.138095 0.0751553
63 1 0.106625 0.106625 0.0436853
64 1 0.138095 0.106625 0.0436853
93 1 0.106625 0.138095 0.0436853
94 1 0.138095 0.138095 0.0436853
963 1 0.106625 0.106625 0.0751553
964 1 0.138095 0.106625 0.0751553
993 1 0.106625 0.138095 0.0751553
994 1 0.138095 0.138095 0.0751553
65 1 0.169565 0.106625 0.0436853
66 1 0.201035 0.106625 0.0436853
95 1 0.169565 0.138095 0.0436853
96 1 0.201035 0.138095 0.0436853
965 1 0.169565 0.106625 0.0751553
966 1 0.201035 0.106625 0.0751553
995 1 0.169565 0.138095 0.0751553
996 1 0.201035 0.138095 0.0751553
67 1 0.232505 0.106625 0.0436853
68 1 0.263975 0.106625 0.0436853
69 1 0.295445 0.106625 0.0436853
97 1 0.232505 0.138095 0.0436853
98 1 0.263975 0.138095 0.0436853
99 1 0.295445 0.138095 0.0436853
967 1 0.232505 0.106625 0.0751553
968 1 0.263975 0.106625 0.0751553
969 1 0.295445 0.106625 0.0751553
997 1 0.232505 0.138095 0.0751553
998 1 0.263975 0.138095 0.0751553
999 1 0.295445 0.138095 0.0751553
70 1 0.326915 0.106625 0.0436853
71 1 0.358385 0.106625 0.0436853
100 1 0.326915 0.138095 0.0436853
101 1 0.358385 0.138095 0.0436853
970 1 0.326915 0.106625 0.0751553
971 1 0.358385 0.106625 0.0751553
1000 1 0.326915 0.138095 0.0751553
1001 1 0.358385 0.138095 0.0751553
72 1 0.389855 0.106625 0.0436853
73 1 0.421325 0.106625 0.0436853
74 1 0.452795 0.106625 0.0436853
102 1 0.389855 0.138095 0.0436853
103 1 0.421325 0.138095 0.0436853
104 1 0.452795 0.138095 0.0436853
972 1 0.389855 0.106625 0.0751553
973 1 0.421325 0.106625 0.0751553
974 1 0.452795 0.106625 0.0751553
1002 1 0.389855 0.138095 0.0751553
1003 1 0.421325 0.138095 0.0751553
1004 1 0.452795 0.138095 0.0751553
75 1 0.484265 0.106625 0.0436853
76 1 0.515735 0.106625 0.0436853
105 1 0.484265 0.138095 0.0436853
106 1 0.515735 0.138095 0.0436853
975 1 0.484265 0.106625 0.0751553
976 1 0.515735 0.106625 0.0751553
1005 1 0.484265 0.138095 0.0751553
1006 1 0.515735 0.138095 0.0751553
77 1 0.547205 0.106625 0.0436853
78 1 0.578675 0.106625 0.0436853
79 1 0.610145 0.106625 0.0436853
107 1 0.547205 0.138095 0.0436853
108 1 0.578675 0.138095 0.0436853
109 1 0.610145 0.138095 0.0436853
977 1 0.547205 0.106625 0.0751553
978 1 0.578675 0.106625 0.0751553
979 1 0.610145 0.106625 0.0751553
1007 1 0.547205 0.138095 0.0751553
1008 1 0.578675 0.138095 0.0751553
1009 1 0.610145 0.138095 0.0751553
80 1 0.641615 0.106625 0.0436853
81 1 0.673085 0.106625 0.0436853
110 1 0.641615 0.138095 0.0436853
111 1 0.673085 0.138095 0.0436853
980 1 0.641615 0.106625 0.0751553
981 1 0.673085 0.106625 0.0751553
1010 1 0.641615 0.138095 0.0751553
1011 1 0.673085 0.138095 0.0751553
82 1 0.704555 0.106625 0.0436853
83 1 0.736025 0.106625 0.0436853
84 1 0.767495 0.106625 0.0436853
112 1 0.704555 0.138095 0.0436853
113 1 0.736025 0.138095 0.0436853
114 1 0.767495 0.138095 0.0436853
982 1 0.704555 0.106625 0.0751553
983 1 0.736025 0.106625 0.0751553
984 1 0.767495 0.106625 0.0751553
1012 1 0.704555 0.138095 0.0751553
1013 1 0.736025 0.138095 0.0751553
1014 1 0.767495 0.138095 0.0751553
85 1 0.798965 0.106625 0.0436853
86 1 0.830435 0.106625 0.0436853
115 1 0.798965 0.138095 0.0436853
116 1 0.830435 0.138095 0.0436853
985 1 0.798965 0.106625 0.0751553
986 1 0.830435 0.106625 0.0751553
1015 1 0.798965 0.138095 0.0751553
1016 1 0.830435 0.138095 0.0751553
87 1 0.861905 0.106625 0.0436853
88 1 0.893375 0.106625 0.0436853
117 1 0.861905 0.138095 0.0436853
118 1 0.893375 0.138095 0.0436853
987 1 0.861905 0.106625 0.0751553
988 1 0.893375 0.106625 0.0751553
1017 1 0.861905 0.138095 0.0751553
1018 1 0.893375 0.138095 0.0751553
89 1 0.924845 0.106625 0.0436853
90 1 0.956315 0.106625 0.0436853
119 1 0.924845 0.138095 0.0436853
120 1 0.956315 0.138095 0.0436853
989 1 0.924845 0.106625 0.0751553
990 1 0.956315 0.106625 0.0751553
1019 1 0.924845 0.138095 0.0751553
1020 1 0.956315 0.138095 0.0751553
121 1 0.0436853 0.169565 0.0436853
122 1 0.0751553 0.169565 0.0436853
151 1 0.0436853 0.201035 0.0436853
152 1 0.0751553 0.201035 0.0436853
181 1 0.0436853 0.232505 0.0436853
182 1 0.0751553 0.232505 0.0436853
1021 1 0.0436853 0.169565 0.0751553
1022 1 0.0751553 0.169565 0.0751553
1051 1 0.0436853 0.201035 0.0751553
1052 1 0.0751553 0.201035 0.0751553
1081 1 0.0436853 0.232505 0.0751553
1082 1 0.0751553 0.232505 0.0751553
123 1 0.106625 0.169565 0.0436853
124 1 0.138095 0.169565 0.0436853
153 1 0.106625 0.201035 0.0436853
154 1 0.138095 0.201035 0.0436853
183 1 0.106625 0.232505 0.0436853
184 1 0.138095 0.232505 0.0436853
1023 1 0.106625 0.169565 0.0751553
1024 1 0.138095 0.169565 0.0751553
1053 1 0.106625 0.201035 0.0751553
1054 1 0.138095 0.201035 0.0751553
1083 1 0.106625 0.232505 0.0751553
1084 1 0.138095 0.232505 0.0751553
125 1 0.169565 0.169565 0.0436853
126 1 0.201035 0.169565 0.0436853
155 1 0.169565 0.201035 0.0436853
156 1 0.201035 0.201035 0.0436853
185 1 0.169565 0.232505 0.0436853
186 1 0.201035 0.232505 0.0436853
1025 1 0.169565 0.169565 0.0751553
1026 1 0.201035 0.169565 0.0751553
1055 1 0.169565 0.201035 0.0751553
1056 1 0.201035 0.201035 0.0751553
1085 1 0.169565 0.232505 0.0751553
1086 1 0.201035 0.232505 0.0751553
127 1 0.232505 0.169565 0.0436853
128 1 0.263975 0.169565 0.0436853
129 1 0.295445 0.169565 0.0436853
157 1 0.232505 0.201035 0.0436853
158 1 0.263975 0.201035 0.0436853
159 1 0.295445 0.201035 0.0436853
187 1 0.232505 0.232505 0.0436853
188 1 0.263975 0.232505 0.0436853
189 1 0.295445 0.232505 0.0436853
1027 1 0.232505 0.169565 0.0751553
1028 1 0.263975 0.169565 0.0751553
1029 1 0.295445 0.169565 0.0751553
1057 1 0.232505 0.201035 0.0751553
1058 1 0.263975 0.201035 0.0751553
1059 1 0.295445 0.201035 0.0751553
1087 1 0.232505 0.232505 0.0751553
1088 1 0.263975 0.232505 0.0751553
1089 1 0.295445 0.232505 0.0751553
130 1 0.326915 0.169565 0.0436853
131 1 0.358385 0.169565 0.0436853
160 1 0.326915 0.201035 0.0436853
161 1 0.358385 0.201035 0.0436853
190 1 0.326915 0.232505 0.0436853
191 1 0.358385 0.232505 0.0436853
1030 1 0.326915 0.169565 0.0751553
1031 1 0.358385 0.169565 0.0751553
1060 1 0.326915 0.201035 0.0751553
1061 1 0.358385 0.201035 0.0751553
1090 1 0.326915 0.232505 0.0751553
1091 1 0.358385 0.232505 0.0751553
132 1 0.389855 0.169565 0.0436853
133 1 0.421325 0.169565 0.0436853
134 1 0.452795 0.169565 0.0436853
162 1 0.389855 0.201035 0.0436853
163 1 0.421325 0.201035 0.0436853
164 1 0.452795 0.201035 0.0436853
192 1 0.389855 0.232505 0.0436853
193 1 0.421325 0.232505 0.0436853
194 1 0.452795 0.232505 0.0436853
1032 1 0.389855 0.169565 0.0751553
1033 1 0.421325 0.169565 0.0751553
1034 1 0.452795 0.169565 0.0751553
1062 1 0.389855 0.201035 0.0751553
1063 1 0.421325 0.201035 0.0751553
1064 1 0.452795 0.201035 0.0751553
1092 1 0.389855 0.232505 0.0751553
1093 1 0.421325 0.232505 0.0751553
1094 1 0.452795 0.232505 0.0751553
135 1 0.484265 0.169565 0.0436853
136 1 0.515735 0.169565 0.0436853
165 1 0.484265 0.201035 0.0436853
166 1 0.515735 0.201035 0.0436853
195 1 0.484265 0.232505 0.0436853
196 1 0.515735 0.232505 0.0436853
1035 1 0.484265 0.169565 0.0751553
1036 1 0.515735 0.169565 0.0751553
1065 1 0.484265 0.201035 0.0751553
1066 1 0.515735 0.201035 0.0751553
1095 1 0.484265 0.232505 0.0751553
1096 1 0.515735 0.232505 0.0751553
137 1 0.547205 0.169565 0.0436853
138 1 0.578675 0.169565 0.0436853
139 1 0.610145 0.169565 0.0436853
167 1 0.547205 0.201035 0.0436853
168 1 0.578675 0.201035 0.0436853
169 1 0.610145 0.201035 0.0436853
197 1 0.547205 0.232505 0.0436853
198 1 0.578675 0.232505 0.0436853
199 1 0.610145 0.232505 0.0436853
1037 1 0.547205 0.169565 0.0751553
1038 1 0.578675 0.169565 0.0751553
1039 1 0.610145 0.169565 0.0751553
1067 1 0.547205 0.201035 0.0751553
1068 1 0.578675 0.201035 0.0751553
1069 1 0.610145 0.201035 0.0751553
1097 1 0.547205 0.232505 0.0751553
1098 1 0.578675 0.232505 0.0751553
1099 1 0.610145 0.232505 0.0751553
140 1 0.641615 0.169565 0.0436853
141 1 0.673085 0.169565 0.0436853
170 1 0.641615 0.201035 0.0436853
171 1 0.673085 0.201035 0.0436853
200 1 0.641615 0.232505 0.0436853
201 1 0.673085 0.232505 0.0436853
1040 1 0.641615 0.169565 0.0751553
1041 1 0.673085 0.169565 0.0751553
1070 1 0.641615 0.201035 0.0751553
1071 1 0.673085 0.201035 0.0751553
1100 1 0.641615 0.232505 0.0751553
1101 1 0.673085 0.232505 0.0751553
142 1 0.704555 0.169565 0.0436853
143 1 0.736025 0.169565 0.0436853
144 1 0.767495 0.169565 0.0436853
172 1 0.704555 0.201035 0.0436853
173 1 0.736025 0.201035 0.0436853
174 1 0.767495 0.201035 0.0436853
202 1 0.704555 0.232505 0.0436853
203 1 0.736025 0.232505 0.0436853
204 1 0.767495 0.232505 0.0436853
1042 1 0.704555 0.169565 0.0751553
1043 1 0.736025 0.169565 0.0751553
1044 1 0.767495 0.169565 0.0751553
1072 1 0.704555 0.201035 0.0751553
1073 1 0.736025 0.201035 0.0751553
1074 1 0.767495 0.201035 0.0751553
1102 1 0.704555 0.232505 0.0751553
1103 1 0.736025 0.232505 0.0751553
1104 1 0.767495 0.232505 0.0751553
145 1 0.798965 0.169565 0.0436853
146 1 0.830435 0.169565 0.0436853
175 1 0.798965 0.201035 0.0436853
176 1 0.830435 0.201035 0.0436853
205 1 0.798965 0.232505 0.0436853
206 1 0.830435 0.232505 0.0436853
1045 1 0.798965 0.169565 0.0751553
1046 1 0.830435 0.169565 0.0751553
1075 1 0.798965 0.201035 0.0751553
1076 1 0.830435 0.201035 0.0751553
1105 1 0.798965 0.232505 0.0751553
1106 1 0.830435 0.232505 0.0751553
147 1 0.861905 0.169565 0.0436853
148 1 0.893375 0.169565 0.0436853
177 1 0.861905 0.201035 0.0436853
178 1 0.893375 0.201035 0.0436853
207 1 0.861905 0.232505 0.0436853
208 1 0.893375 0.232505 0.0436853
1047 1 0.861905 0.169565 0.0751553
1048 1 0.893375 0.169565 0.0751553
1077 1 0.861905 0.201035 0.0751553
1078 1 0.893375 0.201035 0.0751553
1107 1 0.861905 0.232505 0.0751553
1108 1 0.893375 0.232505 0.0751553
149 1 0.924845 0.169565 0.0436853
150 1 0.956315 0.169565 0.0436853
179 1 0.924845 0.201035 0.0436853
180 1 0.956315 0.201035 0.0436853
209 1 0.924845 0.232505 0.0436853
210 1 0.956315 0.232505 0.0436853
1049 1 0.924845 0.169565 0.0751553
1050 1 0.956315 0.169565 0.0751553
1079 1 0.924845 0.201035 0.0751553
1080 1 0.956315 0.201035 0.0751553
1109 1 0.924845 0.232505 0.0751553
1110 1 0.956315 0.232505 0.0751553
211 1 0.0436853 0.263975 0.0436853
212 1 0.0751553 0.263975 0.0436853
241 1 0.0436853 0.295445 0.0436853
242 1 0.0751553 0.295445 0.0436853
271 1 0.0436853 0.326915 0.0436853
272 1 0.0751553 0.326915 0.0436853
1111 1 0.0436853 0.263975 0.0751553
1112 1 0.0751553 0.263975 0.0751553
1141 1 0.0436853 0.295445 0.0751553
1142 1 0.0751553 0.295445 0.0751553
1171 1 0.0436853 0.326915 0.0751553
1172 1 0.0751553 0.326915 0.0751553
213 1 0.106625 0.263975 0.0436853
214 1 0.138095 0.263975 0.0436853
243 1 0.106625 0.295445 0.0436853
244 1 0.138095 0.295445 0.0436853
273 1 0.106625 0.326915 0.0436853
274 1 0.138095 0.326915 0.0436853
1113 1 0.106625 0.263975 0.0751553
1114 1 0.138095 0.263975 0.0751553
1143 1 0.106625 0.295445 0.0751553
1144 1 0.138095 0.295445 0.0751553
1173 1 0.106625 0.326915 0.0751553
1174 1 0.138095 0.326915 0.0751553
215 1 0.169565 0.263975 0.0436853
216 1 0.201035 0.263975 0.0436853
245 1 0.169565 0.295445 0.0436853
246 1 0.201035 0.295445 0.0436853
275 1 0.169565 0.326915 0.0436853
276 1 0.201035 0.326915 0.0436853
1115 1 0.169565 0.263975 0.0751553
1116 1 0.201035 0.263975 0.0751553
1145 1 0.169565 0.295445 0.0751553
1146 1 0.201035 0.295445 0.0751553
1175 1 0.169565 0.326915 0.0751553
1176 1 0.201035 0.326915 0.0751553
217 1 0.232505 0.263975 0.0436853
218 1 0.263975 0.263975 0.0436853
219 1 0.295445 0.263975 0.0436853
247 1 0.232505 0.295445 0.0436853
248 1 0.263975 0.295445 0.0436853
249 1 0.295445 0.295445 0.0436853
277 1 0.232505 0.326915 0.0436853
278 1 0.263975 0.326915 0.0436853
279 1 0.295445 0.326915 0.0436853
1117 1 0.232505 0.263975 0.0751553
1118 1 0.263975 0.263975 0.0751553
1119 1 0.295445 0.263975 0.0751553
1147 1 0.232505 0.295445 0.0751553
1148 1 0.263975 0.295445 0.0751553
1149 1 0.295445 0.295445 0.0751553
1177 1 0.232505 0.326915 0.0751553
1178 1 0.263975 0.326915 0.0751553
1179 1 0.295445 0.326915 0.0751553
220 1 0.326915 0.263975 0.0436853
221 1 0.358385 0.263975 0.0436853
250 1 0.326915 0.295445 0.0436853
251 1 0.358385 0.295445 0.0436853
280 1 0.326915 0.326915 0.0436853
281 1 0.358385 0.326915 0.0436853
1120 1 0.326915 0.263975 0.0751553
1121 1 0.358385 0.263975 0.0751553
1150 1 0.326915 0.295445 0.0751553
1151 1 0.358385 0.295445 0.0751553
1180 1 0.326915 0.326915 0.0751553
1181 1 0.358385 0.326915 0.0751553
222 1 0.389855 0.263975 0.0436853
223 1 0.421325 0.263975 0.0436853
224 1 0.452795 0.263975 0.0436853
252 1 0.389855 0.295445 0.0436853
253 1 0.421325 0.295445 0.0436853
254 1 0.452795 0.295445 0.0436853
282 1 0.389855 0.326915 0.0436853
283 1 0.421325 0.326915 0.0436853
284 1 0.452795 0.326915 0.0436853
1122 1 0.389855 0.263975 0.0751553
1123 1 0.421325 0.263975 0.0751553
1124 1 0.452795 0.263975 0.0751553
1152 1 0.389855 0.295445 0.0751553
1153 1 0.421325 0.295445 0.0751553
1154 1 0.452795 0.295445 0.0751553
1182 1 0.389855 0.326915 0.0751553
1183 1 0.421325 0.326915 0.0751553
1184 1 0.452795 0.326915 0.0751553
225 1 0.484265 0.263975 0.0436853
226 1 0.515735 0.263975 0.0436853
255 1 0.484265 0.295445 0.0436853
256 1 0.515735 0.295445 0.0436853
285 1 0.484265 0.326915 0.0436853
286 1 0.515735 0.326915 0.0436853
1125 1 0.484265 0.263975 0.0751553
1126 1 0.515735 0.263975 0.0751553
1155 1 0.484265 0.295445 0.0751553
1156 1 0.515735 0.295445 0.0751553
1185 1 0.484265 0.326915 0.0751553
1186 1 0.515735 0.326915 0.0751553
227 1 0.547205 0.263975 0.0436853
228 1 0.578675 0.263975 0.0436853
229 1 0.610145 0.263975 0.0436853
257 1 0.547205 0.295445 0.0436853
258 1 0.578675 0.295445 0.0436853
259 1 0.610145 0.295445 0.0436853
287 1 0.547205 0.326915 0.0436853
288 1 0.578675 0.326915 0.0436853
289 1 0.610145 0.326915 0.0436853
1127 1 0.547205 0.263975 0.0751553
1128 1 0.578675 0.263975 0.0751553
1129 1 0.610145 0.263975 0.0751553
1157 1 0.547205 0.295445 0.0751553
1158 1 0.578675 0.295445 0.0751553
1159 1 0.610145 0.295445 0.0751553
1187 1 0.547205 0.326915 0.0751553
1188 1 0.578675 0.326915 0.0751553
1189 1 0.610145 0.326915 0.0751553
230 1 0.641615 0.263975 0.0436853
231 1 0.673085 0.263975 0.0436853
260 1 0.641615 0.295445 0.0436853
261 1 0.673085 0.295445 0.0436853
290 1 0.641615 0.326915 0.0436853
291 1 0.673085 0.326915 0.0436853
1130 1 0.641615 0.263975 0.0751553
1131 1 0.673085 0.263975 0.0751553
1160 1 0.641615 0.295445 0.0751553
1161 1 0.673085 0.295445 0.0751553
1190 1 0.641615 0.326915 0.0751553
1191 1 0.673085 0.326915 0.0751553
232 1 0.704555 0.263975 0.0436853
233 1 0.736025 0.263975 0.0436853
234 1 0.767495 0.263975 0.0436853
262 1 0.704555 0.295445 0.0436853
263 1 0.736025 0.295445 0.0436853
264 1 0.767495 0.295445 0.0436853
292 1 0.704555 0.326915 0.0436853
293 1 0.736025 0.326915 0.0436853
294 1 0.767495 0.326915 0.0436853
1132 1 0.704555 0.263975 0.0751553
1133 1 0.736025 0.263975 0.0751553
1134 1 0.767495 0.263975 0.0751553
1162 1 0.704555 0.295445 0.0751553
1163 1 0.736025 0.295445 0.0751553
1164 1 0.767495 0.295445 0.0751553
1192 1 0.704555 0.326915 0.0751553
1193 1 0.736025 0.326915 0.0751553
1194 1 0.767495 0.326915 0.0751553
235 1 0.798965 0.263975 0.0436853
236 1 0.830435 0.263975 0.0436853
265 1 0.798965 0.295445 0.0436853
266 1 0.830435 0.295445 0.0436853
295 1 0.798965 0.326915 0.0436853
296 1 0.830435 0.326915 0.0436853
1135 1 0.798965 0.263975 0.0751553
1136 1 0.830435 0.263975 0.0751553
1165 1 0.798965 0.295445 0.0751553
1166 1 0.830435 0.295445 0.0751553
1195 1 0.798965 0.326915 0.0751553
1196 1 0.830435 0.326915 0.0751553
237 1 0.861905 0.263975 0.0436853
238 1 0.893375 0.263975 0.0436853
267 1 0.861905 0.295445 0.0436853
268 1 0.893375 0.295445 0.0436853
297 1 0.861905 0.326915 0.0436853
298 1 0.893375 0.326915 0.0436853
1137 1 0.861905 0.263975 0.0751553
1138 1 0.893375 0.263975 0.0751553
1167 1 0.861905 0.295445 0.0751553
1168 1 0.893375 0.295445 0.0751553
1197 1 0.861905 0.326915 0.0751553
1198 1 0.893375 0.326915 0.0751553
239 1 0.924845 0.263975 0.0436853
240 1 0.956315 0.263975 0.0436853
269 1 0.924845 0.295445 0.0436853
270 1 0.956315 0.295445 0.0436853
299 1 0.924845 0.326915 0.0436853
300 1 0.956315 0.326915 0.0436853
1139 1 0.924845 0.263975 0.0751553
1140 1 0.956315 0.263975 0.0751553
1169 1 0.924845 0.295445 0.0751553
1170 1 0.956315 0.295445 0.0751553
1199 1 0.924845 0.326915 0.0751553
1200 1 0.956315 0.326915 0.0751553
301 1 0.0436853 0.358385 0.0436853
302 1 0.0751553 0.358385 0.0436853
331 1 0.0436853 0.389855 0.0436853
332 1 0.0751553 0.389855 0.0436853
1201 1 0.0436853 0.358385 0.0751553
1202 1 0.0751553 0.358385 0.0751553
1231 1 0.0436853 0.389855 0.0751553
1232 1 0.0751553 0.389855 0.0751553
303 1 0.106625 0.358385 0.0436853
304 1 0.138095 0.358385 0.0436853
333 1 0.106625 0.389855 0.0436853
334 1 0.138095 0.389855 0.0436853
1203 1 0.106625 0.358385 0.0751553
1204 1 0.138095 0.358385 0.0751553
1233 1 0.106625 0.389855 0.0751553
1234 1 0.138095 0.389855 0.0751553
305 1 0.169565 0.358385 0.0436853
306 1 0.201035 0.358385 0.0436853
335 1 0.169565 0.389855 0.0436853
336 1 0.201035 0.389855 0.0436853
1205 1 0.169565 0.358385 0.0751553
1206 1 0.201035 0.358385 0.0751553
1235 1 0.169565 0.389855 0.0751553
1236 1 0.201035 0.389855 0.0751553
307 1 0.232505 0.358385 0.0436853
308 1 0.263975 0.358385 0.0436853
309 1 0.295445 0.358385 0.0436853
337 1 0.232505 0.389855 0.0436853
338 1 0.263975 0.389855 0.0436853
339 1 0.295445 0.389855 0.0436853
1207 1 0.232505 0.358385 0.0751553
1208 1 0.263975 0.358385 0.0751553
1209 1 0.295445 0.358385 0.0751553
1237 1 0.232505 0.389855 0.0751553
1238 1 0.263975 0.389855 0.0751553
1239 1 0.295445 0.389855 0.0751553
310 1 0.326915 0.358385 0.0436853
311 1 0.358385 0.358385 0.0436853
340 1 0.326915 0.389855 0.0436853
341 1 0.358385 0.389855 0.0436853
1210 1 0.326915 0.358385 0.0751553
1211 1 0.358385 0.358385 0.0751553
1240 1 0.326915 0.389855 0.0751553
1241 1 0.358385 0.389855 0.0751553
312 1 0.389855 0.358385 0.0436853
313 1 0.421325 0.358385 0.0436853
314 1 0.452795 0.358385 0.0436853
342 1 0.389855 0.389855 0.0436853
343 1 0.421325 0.389855 0.0436853
344 1 0.452795 0.389855 0.0436853
1212 1 0.389855 0.358385 0.0751553
1213 1 0.421325 0.358385 0.0751553
1214 1 0.452795 0.358385 0.0751553
1242 1 0.389855 0.389855 0.0751553
1243 1 0.421325 0.389855 0.0751553
1244 1 0.452795 0.389855 0.0751553
315 1 0.484265 0.358385 0.0436853
316 1 0.515735 0.358385 0.0436853
345 1 0.484265 0.389855 0.0436853
346 1 0.515735 0.389855 0.0436853
1215 1 0.484265 0.358385 0.0751553
1216 1 0.515735 0.358385 0.0751553
1245 1 0.484265 0.389855 0.0751553
1246 1 0.515735 0.389855 0.0751553
317 1 0.547205 0.358385 0.0436853
318 1 0.578675 0.358385 0.0436853
319 1 0.610145 0.358385 0.0436853
347 1 0.547205 0.389855 0.0436853
348 1 0.578675 0.389855 0.0436853
349 1 0.610145 0.389855 0.0436853
1217 1 0.547205 0.358385 0.0751553
1218 1 0.578675 0.358385 0.0751553
1219 1 0.610145 0.358385 0.0751553
1247 1 0.547205 0.389855 0.0751553
1248 1 0.578675 0.389855 0.0751553
1249 1 0.610145 0.389855 0.0751553
320 1 0.641615 0.358385 0.0436853
321 1 0.673085 0.358385 0.0436853
350 1 0.641615 0.389855 0.0436853
351 1 0.673085 0.389855 0.0436853
1220 1 0.641615 0.358385 0.0751553
1221 1 0.673085 0.358385 0.0751553
1250 1 0.641615 0.389855 0.0751553
1251 1 0.673085 0.389855 0.0751553
322 1 0.704555 0.358385 0.0436853
323 1 0.736025 0.358385 0.0436853
324 1 0.767495 0.358385 0.0436853
352 1 0.704555 0.389855 0.0436853
353 1 0.736025 0.389855 0.0436853
354 1 0.767495 0.389855 0.0436853
1222 1 0.704555 0.358385 0.0751553
1223 1 0.736025 0.358385 0.0751553
1224 1 0.767495 0.358385 0.0751553
1252 1 0.704555 0.389855 0.0751553
1253 1 0.736025 0.389855 0.0751553
1254 1 0.767495 0.389855 0.0751553
325 1 0.798965 0.358385 0.0436853
326 1 0.830435 0.358385 0.0436853
355 1 0.798965 0.389855 0.0436853
356 1 0.830435 0.389855 0.0436853
1225 1 0.798965 0.358385 0.0751553
1226 1 0.830435 0.358385 0.0751553
1255 1 0.798965 0.389855 0.0751553
1256 1 0.830435 0.389855 0.0751553
327 1 0.861905 0.358385 0.0436853
328 1 0.893375 0.358385 0.0436853
357 1 0.861905 0.389855 0.0436853
358 1 0.893375 0.389855 0.0436853
1227 1 0.861905 0.358385 0.0751553
1228 1 0.893375 0.358385 0.0751553
1257 1 0.861905 0.389855 0.0751553
1258 1 0.893375 0.389855 0.0751553
329 1 0.924845 0.358385 0.0436853
330 1 0.956315 0.358385 0.0436853
359 1 0.924845 0.389855 0.0436853
360 1 0.956315 0.389855 0.0436853
1229 1 0.924845 0.358385 0.0751553
1230 1 0.956315 0.358385 0.0751553
1259 1 0.924845 0.389855 0.0751553
1260 1 0.956315 0.389855 0.0751553
361 1 0.0436853 0.421325 0.0436853
362 1 0.0751553 0.421325 0.0436853
391 1 0.0436853 0.452795 0.0436853
392 1 0.0751553 0.452795 0.0436853
421 1 0.0436853 0.484265 0.0436853
422 1 0.0751553 0.484265 0.0436853
1261 1 0.0436853 0.421325 0.0751553
1262 1 0.0751553 0.421325 0.0751553
1291 1 0.0436853 0.452795 0.0751553
1292 1 0.0751553 0.452795 0.0751553
1321 1 0.0436853 0.484265 0.0751553
1322 1 0.0751553 0.484265 0.0751553
363 1 0.106625 0.421325 0.0436853
364 1 0.138095 0.421325 0.0436853
393 1 0.106625 0.452795 0.0436853
394 1 0.138095 0.452795 0.0436853
423 1 0.106625 0.484265 0.0436853
424 1 0.138095 0.484265 0.0436853
1263 1 0.106625 0.421325 0.0751553
1264 1 0.138095 0.421325 0.0751553
1293 1 0.106625 0.452795 0.0751553
1294 1 0.138095 0.452795 0.0751553
1323 1 0.106625 0.484265 0.0751553
1324 1 0.138095 0.484265 0.0751553
365 1 0.169565 0.421325 0.0436853
366 1 0.201035 0.421325 0.0436853
395 1 0.169565 0.452795 0.0436853
396 1 0.201035 0.452795 0.0436853
425 1 0.169565 0.484265 0.0436853
426 1 0.201035 0.484265 0.0436853
1265 1 0.169565 0.421325 0.0751553
1266 1 0.201035 0.421325 0.0751553
1295 1 0.169565 0.452795 0.0751553
1296 1 0.201035 0.452795 0.0751553
1325 1 0.169565 0.484265 0.0751553
1326 1 0.201035 0.484265 0.0751553
367 1 0.232505 0.421325 0.0436853
368 1 0.263975 0.421325 0.0436853
369 1 0.295445 0.421325 0.0436853
397 1 0.232505 0.452795 0.0436853
398 1 0.263975 0.452795 0.0436853
399 1 0.295445 0.452795 0.0436853
427 1 0.232505 0.484265 0.0436853
428 1 0.263975 0.484265 0.0436853
429 1 0.295445 0.484265 0.0436853
1267 1 0.232505 0.421325 0.0751553
1268 1 0.263975 0.421325 0.0751553
1269 1 0.295445 0.421325 0.0751553
1297 1 0.232505 0.452795 0.0751553
1298 1 0.263975 0.452795 0.0751553
1299 1 0.295445 0.452795 0.0751553
1327 1 0.232505 0.484265 0.0751553
1328 1 0.263975 0.484265 0.0751553
1329 1 0.295445 0.484265 0.0751553
370 1 0.326915 0.421325 0.0436853
371 1 0.358385 0.421325 0.0436853
400 1 0.326915 0.452795 0.0436853
401 1 0.358385 0.452795 0.0436853
430 1 0.326915 0.484265 0.0436853
431 1 0.358385 0.484265 0.0436853
1270 1 0.326915 0.421325 0.0751553
1271 1 0.358385 0.421325 0.0751553
1300 1 0.326915 0.452795 0.0751553
1301 1 0.358385 0.452795 0.0751553
1330 1 0.326915 0.484265 0.0751553
1331 1 0.358385 0.484265 0.0751553
372 1 0.389855 0.421325 0.0436853
373 1 0.421325 0.421325 0.0436853
374 1 0.452795 0.421325 0.0436853
402 1 0.389855 0.452795 0.0436853
403 1 0.421325 0.452795 0.0436853
404 1 0.452795 0.452795 0.0436853
432 1 0.389855 0.484265 0.0436853
433 1 0.421325 0.484265 0.0436853
434 1 0.452795 0.484265 0.0436853
1272 1 0.389855 0.421325 0.0751553
1273 1 0.421325 0.421325 0.0751553
1274 1 0.452795 0.421325 0.0751553
1302 1 0.389855 0.452795 0.0751553
1303 1 0.421325 0.452795 0.0751553
1304 1 0.452795 0.452795 0.0751553
1332 1 0.389855 0.484265 0.0751553
1333 1 0.421325 0.484265 0.0751553
1334 1 0.452795 0.484265 0.0751553
375 1 0.484265 0.421325 0.0436853
376 1 0.515735 0.421325 0.0436853
405 1 0.484265 0.452795 0.0436853
406 1 0.515735 0.452795 0.0436853
435 1 0.484265 0.484265 0.0436853
436 1 0.515735 0.484265 0.0436853
1275 1 0.484265 0.421325 0.0751553
1276 1 0.515735 0.421325 0.0751553
1305 1 0.484265 0.452795 0.0751553
1306 1 0.515735 0.452795 0.0751553
1335 1 0.484265 0.484265 0.0751553
1336 1 0.515735 0.484265 0.0751553
377 1 0.547205 0.421325 0.0436853
378 1 0.578675 0.421325 0.0436853
379 1 0.610145 0.421325 0.0436853
407 1 0.547205 0.452795 0.0436853
408 1 0.578675 0.452795 0.0436853
409 1 0.610145 0.452795 0.0436853
437 1 0.547205 0.484265 0.0436853
438 1 0.578675 0.484265 0.0436853
439 1 0.610145 0.484265 0.0436853
1277 1 0.547205 0.421325 0.0751553
1278 1 0.578675 0.421325 0.0751553
1279 1 0.610145 0.421325 0.0751553
1307 1 0.547205 0.452795 0.0751553
1308 1 0.578675 0.452795 0.0751553
1309 1 0.610145 0.452795 0.0751553
1337 1 0.547205 0.484265 0.0751553
1338 1 0.578675 0.484265 0.0751553
1339 1 0.610145 0.484265 0.0751553
380 1 0.641615 0.421325 0.0436853
381 1 0.673085 0.421325 0.0436853
410 1 0.641615 0.452795 0.0436853
411 1 0.673085 0.452795 0.0436853
440 1 0.641615 0.484265 0.0436853
441 1 0.673085 0.484265 0.0436853
1280 1 0.641615 0.421325 0.0751553
1281 1 0.673085 0.421325 0.0751553
1310 1 0.641615 0.452795 0.0751553
1311 1 0.673085 0.452795 0.0751553
1340 1 0.641615 0.484265 0.0751553
1341 1 0.673085 0.484265 0.0751553
382 1 0.704555 0.421325 0.0436853
383 1 0.736025 0.421325 0.0436853
384 1 0.767495 0.421325 0.0436853
412 1 0.704555 0.452795 0.0436853
413 1 0.736025 0.452795 0.0436853
414 1 0.767495 0.452795 0.0436853
442 1 0.704555 0.484265 0.0436853
443 1 0.736025 0.484265 0.0436853
444 1 0.767495 0.484265 0.0436853
1282 1 0.704555 0.421325 0.0751553
1283 1 0.736025 0.421325 0.0751553
1284 1 0.767495 0.421325 0.0751553
1312 1 0.704555 0.452795 0.0751553
1313 1 0.736025 0.452795 0.0751553
1314 1 0.767495 0.452795 0.0751553
1342 1 0.704555 0.484265 0.0751553
1343 1 0.736025 0.484265 0.0751553