LAMMPS (23 Jun 2022 - Update 4)

units           lj
atom_style     angle
boundary       p p p
dimension      3

variable seed equal 414543
variable temperature equal 1.0
variable D equal 0.77           #difusion constant
variable gamma equal 1.0/${D}   #translational friction
variable gamma equal 1.0/0.77   
variable rc equal 1.122462048   #cutoff radius

atom_style atomic

read_data             brownian_L_20.0_rho_0.2.data
Reading data file ...
  orthogonal box = (-10 -10 -10) to (10 10 10)
  1 by 2 by 2 MPI processor grid
WARNING: Atom style in data file differs from currently defined atom style (../read_data.cpp:538)
  reading atoms ...
ERROR: Incorrect atom format in data file: 1 1 1 -9.0000000000000000 -8.0000000000000000 -9.0000000000000000
2 1 1 -8.0000000000000000 -8.0000000000000000 -9.0000000000000000
3 2 1 -9.0000000000000000 -6.9900000000000002 -9.0000000000000000
4 2 1 -8.0000000000000000 -6.9900000000000002 -9.0000000000000000
5 3 1 -9.0000000000000000 -5.9800000000000004 -9.0000000000000000
6 3 1 -8.0000000000000000 -5.9800000000000004 -9.0000000000000000
7 4 1 -9.0000000000000000 -4.9700000000000006 -9.0000000000000000
8 4 1 -8.0000000000000000 -4.9700000000000006 -9.0000000000000000
9 5 1 -9.0000000000000000 -3.9600000000000009 -9.0000000000000000
10 5 1 -8.0000000000000000 -3.9600000000000009 -9.0000000000000000
11 6 1 -9.0000000000000000 -2.9500000000000011 -9.0000000000000000
12 6 1 -8.0000000000000000 -2.9500000000000011 -9.0000000000000000
13 7 1 -9.0000000000000000 -1.9400000000000013 -9.0000000000000000
14 7 1 -8.0000000000000000 -1.9400000000000013 -9.0000000000000000
15 8 1 -9.0000000000000000 -0.9300000000000015 -9.0000000000000000
16 8 1 -8.0000000000000000 -0.9300000000000015 -9.0000000000000000
17 9 1 -9.0000000000000000 0.0799999999999983 -9.0000000000000000
18 9 1 -8.0000000000000000 0.0799999999999983 -9.0000000000000000
19 10 1 -9.0000000000000000 1.0899999999999981 -9.0000000000000000
20 10 1 -8.0000000000000000 1.0899999999999981 -9.0000000000000000
21 11 1 -9.0000000000000000 2.0999999999999979 -9.0000000000000000
22 11 1 -8.0000000000000000 2.0999999999999979 -9.0000000000000000
23 12 1 -9.0000000000000000 3.1099999999999977 -9.0000000000000000
24 12 1 -8.0000000000000000 3.1099999999999977 -9.0000000000000000
25 13 1 -9.0000000000000000 4.1199999999999974 -9.0000000000000000
26 13 1 -8.0000000000000000 4.1199999999999974 -9.0000000000000000
27 14 1 -9.0000000000000000 5.1299999999999972 -9.0000000000000000
28 14 1 -8.0000000000000000 5.1299999999999972 -9.0000000000000000
29 15 1 -9.0000000000000000 6.1399999999999970 -9.0000000000000000
30 15 1 -8.0000000000000000 6.1399999999999970 -9.0000000000000000
31 16 1 -9.0000000000000000 7.1499999999999986 -9.0000000000000000
32 16 1 -8.0000000000000000 7.1499999999999986 -9.0000000000000000
33 17 1 -9.0000000000000000 8.1600000000000001 -9.0000000000000000
34 17 1 -8.0000000000000000 8.1600000000000001 -9.0000000000000000
35 18 1 -9.0000000000000000 -8.0000000000000000 -7.9900000000000002
36 18 1 -8.0000000000000000 -8.0000000000000000 -7.9900000000000002
37 19 1 -9.0000000000000000 -6.9900000000000002 -7.9900000000000002
38 19 1 -8.0000000000000000 -6.9900000000000002 -7.9900000000000002
39 20 1 -9.0000000000000000 -5.9800000000000004 -7.9900000000000002
40 20 1 -8.0000000000000000 -5.9800000000000004 -7.9900000000000002
41 21 1 -9.0000000000000000 -4.9700000000000006 -7.9900000000000002
42 21 1 -8.0000000000000000 -4.9700000000000006 -7.9900000000000002
43 22 1 -9.0000000000000000 -3.9600000000000009 -7.9900000000000002
44 22 1 -8.0000000000000000 -3.9600000000000009 -7.9900000000000002
45 23 1 -9.0000000000000000 -2.9500000000000011 -7.9900000000000002
46 23 1 -8.0000000000000000 -2.9500000000000011 -7.9900000000000002
47 24 1 -9.0000000000000000 -1.9400000000000013 -7.9900000000000002
48 24 1 -8.0000000000000000 -1.9400000000000013 -7.9900000000000002
49 25 1 -9.0000000000000000 -0.9300000000000015 -7.9900000000000002
50 25 1 -8.0000000000000000 -0.9300000000000015 -7.9900000000000002
51 26 1 -9.0000000000000000 0.0799999999999983 -7.9900000000000002
52 26 1 -8.0000000000000000 0.0799999999999983 -7.9900000000000002
53 27 1 -9.0000000000000000 1.0899999999999981 -7.9900000000000002
54 27 1 -8.0000000000000000 1.0899999999999981 -7.9900000000000002
55 28 1 -9.0000000000000000 2.0999999999999979 -7.9900000000000002
56 28 1 -8.0000000000000000 2.0999999999999979 -7.9900000000000002
57 29 1 -9.0000000000000000 3.1099999999999977 -7.9900000000000002
58 29 1 -8.0000000000000000 3.1099999999999977 -7.9900000000000002
59 30 1 -9.0000000000000000 4.1199999999999974 -7.9900000000000002
60 30 1 -8.0000000000000000 4.1199999999999974 -7.9900000000000002
61 31 1 -9.0000000000000000 5.1299999999999972 -7.9900000000000002
62 31 1 -8.0000000000000000 5.1299999999999972 -7.9900000000000002
63 32 1 -9.0000000000000000 6.1399999999999970 -7.9900000000000002
64 32 1 -8.0000000000000000 6.1399999999999970 -7.9900000000000002
65 33 1 -9.0000000000000000 7.1499999999999986 -7.9900000000000002
66 33 1 -8.0000000000000000 7.1499999999999986 -7.9900000000000002
67 34 1 -9.0000000000000000 8.1600000000000001 -7.9900000000000002
68 34 1 -8.0000000000000000 8.1600000000000001 -7.9900000000000002
69 35 1 -9.0000000000000000 -8.0000000000000000 -6.9800000000000004
70 35 1 -8.0000000000000000 -8.0000000000000000 -6.9800000000000004
71 36 1 -9.0000000000000000 -6.9900000000000002 -6.9800000000000004
72 36 1 -8.0000000000000000 -6.9900000000000002 -6.9800000000000004
73 37 1 -9.0000000000000000 -5.9800000000000004 -6.9800000000000004
74 37 1 -8.0000000000000000 -5.9800000000000004 -6.9800000000000004
75 38 1 -9.0000000000000000 -4.9700000000000006 -6.9800000000000004
76 38 1 -8.0000000000000000 -4.9700000000000006 -6.9800000000000004
77 39 1 -9.0000000000000000 -3.9600000000000009 -6.9800000000000004
78 39 1 -8.0000000000000000 -3.9600000000000009 -6.9800000000000004
79 40 1 -9.0000000000000000 -2.9500000000000011 -6.9800000000000004
80 40 1 -8.0000000000000000 -2.9500000000000011 -6.9800000000000004
81 41 1 -9.0000000000000000 -1.9400000000000013 -6.9800000000000004
82 41 1 -8.0000000000000000 -1.9400000000000013 -6.9800000000000004
83 42 1 -9.0000000000000000 -0.9300000000000015 -6.9800000000000004
84 42 1 -8.0000000000000000 -0.9300000000000015 -6.9800000000000004
85 43 1 -9.0000000000000000 0.0799999999999983 -6.9800000000000004
86 43 1 -8.0000000000000000 0.0799999999999983 -6.9800000000000004
87 44 1 -9.0000000000000000 1.0899999999999981 -6.9800000000000004
88 44 1 -8.0000000000000000 1.0899999999999981 -6.9800000000000004
89 45 1 -9.0000000000000000 2.0999999999999979 -6.9800000000000004
90 45 1 -8.0000000000000000 2.0999999999999979 -6.9800000000000004
91 46 1 -9.0000000000000000 3.1099999999999977 -6.9800000000000004
92 46 1 -8.0000000000000000 3.1099999999999977 -6.9800000000000004
93 47 1 -9.0000000000000000 4.1199999999999974 -6.9800000000000004
94 47 1 -8.0000000000000000 4.1199999999999974 -6.9800000000000004
95 48 1 -9.0000000000000000 5.1299999999999972 -6.9800000000000004
96 48 1 -8.0000000000000000 5.1299999999999972 -6.9800000000000004
97 49 1 -9.0000000000000000 6.1399999999999970 -6.9800000000000004
98 49 1 -8.0000000000000000 6.1399999999999970 -6.9800000000000004
99 50 1 -9.0000000000000000 7.1499999999999986 -6.9800000000000004
100 50 1 -8.0000000000000000 7.1499999999999986 -6.9800000000000004
101 51 1 -9.0000000000000000 8.1600000000000001 -6.9800000000000004
102 51 1 -8.0000000000000000 8.1600000000000001 -6.9800000000000004
103 52 1 -9.0000000000000000 -8.0000000000000000 -5.9700000000000006
104 52 1 -8.0000000000000000 -8.0000000000000000 -5.9700000000000006
105 53 1 -9.0000000000000000 -6.9900000000000002 -5.9700000000000006
106 53 1 -8.0000000000000000 -6.9900000000000002 -5.9700000000000006
107 54 1 -9.0000000000000000 -5.9800000000000004 -5.9700000000000006
108 54 1 -8.0000000000000000 -5.9800000000000004 -5.9700000000000006
109 55 1 -9.0000000000000000 -4.9700000000000006 -5.9700000000000006
110 55 1 -8.0000000000000000 -4.9700000000000006 -5.9700000000000006
111 56 1 -9.0000000000000000 -3.9600000000000009 -5.9700000000000006
112 56 1 -8.0000000000000000 -3.9600000000000009 -5.9700000000000006
113 57 1 -9.0000000000000000 -2.9500000000000011 -5.9700000000000006
114 57 1 -8.0000000000000000 -2.9500000000000011 -5.9700000000000006
115 58 1 -9.0000000000000000 -1.9400000000000013 -5.9700000000000006
116 58 1 -8.0000000000000000 -1.9400000000000013 -5.9700000000000006
117 59 1 -9.0000000000000000 -0.9300000000000015 -5.9700000000000006
118 59 1 -8.0000000000000000 -0.9300000000000015 -5.9700000000000006
119 60 1 -9.0000000000000000 0.0799999999999983 -5.9700000000000006
120 60 1 -8.0000000000000000 0.0799999999999983 -5.9700000000000006
121 61 1 -9.0000000000000000 1.0899999999999981 -5.9700000000000006
122 61 1 -8.0000000000000000 1.0899999999999981 -5.9700000000000006
123 62 1 -9.0000000000000000 2.0999999999999979 -5.9700000000000006
124 62 1 -8.0000000000000000 2.0999999999999979 -5.9700000000000006
125 63 1 -9.0000000000000000 3.1099999999999977 -5.9700000000000006
126 63 1 -8.0000000000000000 3.1099999999999977 -5.9700000000000006
127 64 1 -9.0000000000000000 4.1199999999999974 -5.9700000000000006
128 64 1 -8.0000000000000000 4.1199999999999974 -5.9700000000000006
129 65 1 -9.0000000000000000 5.1299999999999972 -5.9700000000000006
130 65 1 -8.0000000000000000 5.1299999999999972 -5.9700000000000006
131 66 1 -9.0000000000000000 6.1399999999999970 -5.9700000000000006
132 66 1 -8.0000000000000000 6.1399999999999970 -5.9700000000000006
133 67 1 -9.0000000000000000 7.1499999999999986 -5.9700000000000006
134 67 1 -8.0000000000000000 7.1499999999999986 -5.9700000000000006
135 68 1 -9.0000000000000000 8.1600000000000001 -5.9700000000000006
136 68 1 -8.0000000000000000 8.1600000000000001 -5.9700000000000006
137 69 1 -9.0000000000000000 -8.0000000000000000 -4.9600000000000009
138 69 1 -8.0000000000000000 -8.0000000000000000 -4.9600000000000009
139 70 1 -9.0000000000000000 -6.9900000000000002 -4.9600000000000009
140 70 1 -8.0000000000000000 -6.9900000000000002 -4.9600000000000009
141 71 1 -9.0000000000000000 -5.9800000000000004 -4.9600000000000009
142 71 1 -8.0000000000000000 -5.9800000000000004 -4.9600000000000009
143 72 1 -9.0000000000000000 -4.9700000000000006 -4.9600000000000009
144 72 1 -8.0000000000000000 -4.9700000000000006 -4.9600000000000009
145 73 1 -9.0000000000000000 -3.9600000000000009 -4.9600000000000009
146 73 1 -8.0000000000000000 -3.9600000000000009 -4.9600000000000009
147 74 1 -9.0000000000000000 -2.9500000000000011 -4.9600000000000009
148 74 1 -8.0000000000000000 -2.9500000000000011 -4.9600000000000009
149 75 1 -9.0000000000000000 -1.9400000000000013 -4.9600000000000009
150 75 1 -8.0000000000000000 -1.9400000000000013 -4.9600000000000009
151 76 1 -9.0000000000000000 -0.9300000000000015 -4.9600000000000009
152 76 1 -8.0000000000000000 -0.9300000000000015 -4.9600000000000009
153 77 1 -9.0000000000000000 0.0799999999999983 -4.9600000000000009
154 77 1 -8.0000000000000000 0.0799999999999983 -4.9600000000000009
155 78 1 -9.0000000000000000 1.0899999999999981 -4.9600000000000009
156 78 1 -8.0000000000000000 1.0899999999999981 -4.9600000000000009
157 79 1 -9.0000000000000000 2.0999999999999979 -4.9600000000000009
158 79 1 -8.0000000000000000 2.0999999999999979 -4.9600000000000009
159 80 1 -9.0000000000000000 3.1099999999999977 -4.9600000000000009
160 80 1 -8.0000000000000000 3.1099999999999977 -4.9600000000000009
161 81 1 -9.0000000000000000 4.1199999999999974 -4.9600000000000009
162 81 1 -8.0000000000000000 4.1199999999999974 -4.9600000000000009
163 82 1 -9.0000000000000000 5.1299999999999972 -4.9600000000000009
164 82 1 -8.0000000000000000 5.1299999999999972 -4.9600000000000009
165 83 1 -9.0000000000000000 6.1399999999999970 -4.9600000000000009
166 83 1 -8.0000000000000000 6.1399999999999970 -4.9600000000000009
167 84 1 -9.0000000000000000 7.1499999999999986 -4.9600000000000009
168 84 1 -8.0000000000000000 7.1499999999999986 -4.9600000000000009
169 85 1 -9.0000000000000000 8.1600000000000001 -4.9600000000000009
170 85 1 -8.0000000000000000 8.1600000000000001 -4.9600000000000009
171 86 1 -9.0000000000000000 -8.0000000000000000 -3.9500000000000011
172 86 1 -8.0000000000000000 -8.0000000000000000 -3.9500000000000011
173 87 1 -9.0000000000000000 -6.9900000000000002 -3.9500000000000011
174 87 1 -8.0000000000000000 -6.9900000000000002 -3.9500000000000011
175 88 1 -9.0000000000000000 -5.9800000000000004 -3.9500000000000011
176 88 1 -8.0000000000000000 -5.9800000000000004 -3.9500000000000011
177 89 1 -9.0000000000000000 -4.9700000000000006 -3.9500000000000011
178 89 1 -8.0000000000000000 -4.9700000000000006 -3.9500000000000011
179 90 1 -9.0000000000000000 -3.9600000000000009 -3.9500000000000011
180 90 1 -8.0000000000000000 -3.9600000000000009 -3.9500000000000011
181 91 1 -9.0000000000000000 -2.9500000000000011 -3.9500000000000011
182 91 1 -8.0000000000000000 -2.9500000000000011 -3.9500000000000011
183 92 1 -9.0000000000000000 -1.9400000000000013 -3.9500000000000011
184 92 1 -8.0000000000000000 -1.9400000000000013 -3.9500000000000011
185 93 1 -9.0000000000000000 -0.9300000000000015 -3.9500000000000011
186 93 1 -8.0000000000000000 -0.9300000000000015 -3.9500000000000011
187 94 1 -9.0000000000000000 0.0799999999999983 -3.9500000000000011
188 94 1 -8.0000000000000000 0.0799999999999983 -3.9500000000000011
189 95 1 -9.0000000000000000 1.0899999999999981 -3.9500000000000011
190 95 1 -8.0000000000000000 1.0899999999999981 -3.9500000000000011
191 96 1 -9.0000000000000000 2.0999999999999979 -3.9500000000000011
192 96 1 -8.0000000000000000 2.0999999999999979 -3.9500000000000011
193 97 1 -9.0000000000000000 3.1099999999999977 -3.9500000000000011
194 97 1 -8.0000000000000000 3.1099999999999977 -3.9500000000000011
195 98 1 -9.0000000000000000 4.1199999999999974 -3.9500000000000011
196 98 1 -8.0000000000000000 4.1199999999999974 -3.9500000000000011
197 99 1 -9.0000000000000000 5.1299999999999972 -3.9500000000000011
198 99 1 -8.0000000000000000 5.1299999999999972 -3.9500000000000011
199 100 1 -9.0000000000000000 6.1399999999999970 -3.9500000000000011
200 100 1 -8.0000000000000000 6.1399999999999970 -3.9500000000000011
201 101 1 -9.0000000000000000 7.1499999999999986 -3.9500000000000011
202 101 1 -8.0000000000000000 7.1499999999999986 -3.9500000000000011
203 102 1 -9.0000000000000000 8.1600000000000001 -3.9500000000000011
204 102 1 -8.0000000000000000 8.1600000000000001 -3.9500000000000011
205 103 1 -9.0000000000000000 -8.0000000000000000 -2.9400000000000013
206 103 1 -8.0000000000000000 -8.0000000000000000 -2.9400000000000013
207 104 1 -9.0000000000000000 -6.9900000000000002 -2.9400000000000013
208 104 1 -8.0000000000000000 -6.9900000000000002 -2.9400000000000013
209 105 1 -9.0000000000000000 -5.9800000000000004 -2.9400000000000013
210 105 1 -8.0000000000000000 -5.9800000000000004 -2.9400000000000013
211 106 1 -9.0000000000000000 -4.9700000000000006 -2.9400000000000013
212 106 1 -8.0000000000000000 -4.9700000000000006 -2.9400000000000013
213 107 1 -9.0000000000000000 -3.9600000000000009 -2.9400000000000013
214 107 1 -8.0000000000000000 -3.9600000000000009 -2.9400000000000013
215 108 1 -9.0000000000000000 -2.9500000000000011 -2.9400000000000013
216 108 1 -8.0000000000000000 -2.9500000000000011 -2.9400000000000013
217 109 1 -9.0000000000000000 -1.9400000000000013 -2.9400000000000013
218 109 1 -8.0000000000000000 -1.9400000000000013 -2.9400000000000013
219 110 1 -9.0000000000000000 -0.9300000000000015 -2.9400000000000013
220 110 1 -8.0000000000000000 -0.9300000000000015 -2.9400000000000013
221 111 1 -9.0000000000000000 0.0799999999999983 -2.9400000000000013
222 111 1 -8.0000000000000000 0.0799999999999983 -2.9400000000000013
223 112 1 -9.0000000000000000 1.0899999999999981 -2.9400000000000013
224 112 1 -8.0000000000000000 1.0899999999999981 -2.9400000000000013
225 113 1 -9.0000000000000000 2.0999999999999979 -2.9400000000000013
226 113 1 -8.0000000000000000 2.0999999999999979 -2.9400000000000013
227 114 1 -9.0000000000000000 3.1099999999999977 -2.9400000000000013
228 114 1 -8.0000000000000000 3.1099999999999977 -2.9400000000000013
229 115 1 -9.0000000000000000 4.1199999999999974 -2.9400000000000013
230 115 1 -8.0000000000000000 4.1199999999999974 -2.9400000000000013
231 116 1 -9.0000000000000000 5.1299999999999972 -2.9400000000000013
232 116 1 -8.0000000000000000 5.1299999999999972 -2.9400000000000013
233 117 1 -9.0000000000000000 6.1399999999999970 -2.9400000000000013
234 117 1 -8.0000000000000000 6.1399999999999970 -2.9400000000000013
235 118 1 -9.0000000000000000 7.1499999999999986 -2.9400000000000013
236 118 1 -8.0000000000000000 7.1499999999999986 -2.9400000000000013
237 119 1 -9.0000000000000000 8.1600000000000001 -2.9400000000000013
238 119 1 -8.0000000000000000 8.1600000000000001 -2.9400000000000013
239 120 1 -9.0000000000000000 -8.0000000000000000 -1.9300000000000015
240 120 1 -8.0000000000000000 -8.0000000000000000 -1.9300000000000015
241 121 1 -9.0000000000000000 -6.9900000000000002 -1.9300000000000015
242 121 1 -8.0000000000000000 -6.9900000000000002 -1.9300000000000015
243 122 1 -9.0000000000000000 -5.9800000000000004 -1.9300000000000015
244 122 1 -8.0000000000000000 -5.9800000000000004 -1.9300000000000015
245 123 1 -9.0000000000000000 -4.9700000000000006 -1.9300000000000015
246 123 1 -8.0000000000000000 -4.9700000000000006 -1.9300000000000015
247 124 1 -9.0000000000000000 -3.9600000000000009 -1.9300000000000015
248 124 1 -8.0000000000000000 -3.9600000000000009 -1.9300000000000015
249 125 1 -9.0000000000000000 -2.9500000000000011 -1.9300000000000015
250 125 1 -8.0000000000000000 -2.9500000000000011 -1.9300000000000015
251 126 1 -9.0000000000000000 -1.9400000000000013 -1.9300000000000015
252 126 1 -8.0000000000000000 -1.9400000000000013 -1.9300000000000015
253 127 1 -9.0000000000000000 -0.9300000000000015 -1.9300000000000015
254 127 1 -8.0000000000000000 -0.9300000000000015 -1.9300000000000015
255 128 1 -9.0000000000000000 0.0799999999999983 -1.9300000000000015
256 128 1 -8.0000000000000000 0.0799999999999983 -1.9300000000000015
257 129 1 -9.0000000000000000 1.0899999999999981 -1.9300000000000015
258 129 1 -8.0000000000000000 1.0899999999999981 -1.9300000000000015
259 130 1 -9.0000000000000000 2.0999999999999979 -1.9300000000000015
260 130 1 -8.0000000000000000 2.0999999999999979 -1.9300000000000015
261 131 1 -9.0000000000000000 3.1099999999999977 -1.9300000000000015
262 131 1 -8.0000000000000000 3.1099999999999977 -1.9300000000000015
263 132 1 -9.0000000000000000 4.1199999999999974 -1.9300000000000015
264 132 1 -8.0000000000000000 4.1199999999999974 -1.9300000000000015
265 133 1 -9.0000000000000000 5.1299999999999972 -1.9300000000000015
266 133 1 -8.0000000000000000 5.1299999999999972 -1.9300000000000015
267 134 1 -9.0000000000000000 6.1399999999999970 -1.9300000000000015
268 134 1 -8.0000000000000000 6.1399999999999970 -1.9300000000000015
269 135 1 -9.0000000000000000 7.1499999999999986 -1.9300000000000015
270 135 1 -8.0000000000000000 7.1499999999999986 -1.9300000000000015
271 136 1 -9.0000000000000000 8.1600000000000001 -1.9300000000000015
272 136 1 -8.0000000000000000 8.1600000000000001 -1.9300000000000015
273 137 1 -9.0000000000000000 -8.0000000000000000 -0.9200000000000017
274 137 1 -8.0000000000000000 -8.0000000000000000 -0.9200000000000017
275 138 1 -9.0000000000000000 -6.9900000000000002 -0.9200000000000017
276 138 1 -8.0000000000000000 -6.9900000000000002 -0.9200000000000017
277 139 1 -9.0000000000000000 -5.9800000000000004 -0.9200000000000017
278 139 1 -8.0000000000000000 -5.9800000000000004 -0.9200000000000017
279 140 1 -9.0000000000000000 -4.9700000000000006 -0.9200000000000017
280 140 1 -8.0000000000000000 -4.9700000000000006 -0.9200000000000017
281 141 1 -9.0000000000000000 -3.9600000000000009 -0.9200000000000017
282 141 1 -8.0000000000000000 -3.9600000000000009 -0.9200000000000017
283 142 1 -9.0000000000000000 -2.9500000000000011 -0.9200000000000017
284 142 1 -8.0000000000000000 -2.9500000000000011 -0.9200000000000017
285 143 1 -9.0000000000000000 -1.9400000000000013 -0.9200000000000017
286 143 1 -8.0000000000000000 -1.9400000000000013 -0.9200000000000017
287 144 1 -9.0000000000000000 -0.9300000000000015 -0.9200000000000017
288 144 1 -8.0000000000000000 -0.9300000000000015 -0.9200000000000017
289 145 1 -9.0000000000000000 0.0799999999999983 -0.9200000000000017
290 145 1 -8.0000000000000000 0.0799999999999983 -0.9200000000000017
291 146 1 -9.0000000000000000 1.0899999999999981 -0.9200000000000017
292 146 1 -8.0000000000000000 1.0899999999999981 -0.9200000000000017
293 147 1 -9.0000000000000000 2.0999999999999979 -0.9200000000000017
294 147 1 -8.0000000000000000 2.0999999999999979 -0.9200000000000017
295 148 1 -9.0000000000000000 3.1099999999999977 -0.9200000000000017
296 148 1 -8.0000000000000000 3.1099999999999977 -0.9200000000000017
297 149 1 -9.0000000000000000 4.1199999999999974 -0.9200000000000017
298 149 1 -8.0000000000000000 4.1199999999999974 -0.9200000000000017
299 150 1 -9.0000000000000000 5.1299999999999972 -0.9200000000000017
300 150 1 -8.0000000000000000 5.1299999999999972 -0.9200000000000017
301 151 1 -9.0000000000000000 6.1399999999999970 -0.9200000000000017
302 151 1 -8.0000000000000000 6.1399999999999970 -0.9200000000000017
303 152 1 -9.0000000000000000 7.1499999999999986 -0.9200000000000017
304 152 1 -8.0000000000000000 7.1499999999999986 -0.9200000000000017
305 153 1 -9.0000000000000000 8.1600000000000001 -0.9200000000000017
306 153 1 -8.0000000000000000 8.1600000000000001 -0.9200000000000017
307 154 1 -9.0000000000000000 -8.0000000000000000 0.0899999999999981
308 154 1 -8.0000000000000000 -8.0000000000000000 0.0899999999999981
309 155 1 -9.0000000000000000 -6.9900000000000002 0.0899999999999981
310 155 1 -8.0000000000000000 -6.9900000000000002 0.0899999999999981
311 156 1 -9.0000000000000000 -5.9800000000000004 0.0899999999999981
312 156 1 -8.0000000000000000 -5.9800000000000004 0.0899999999999981
313 157 1 -9.0000000000000000 -4.9700000000000006 0.0899999999999981
314 157 1 -8.0000000000000000 -4.9700000000000006 0.0899999999999981
315 158 1 -9.0000000000000000 -3.9600000000000009 0.0899999999999981
316 158 1 -8.0000000000000000 -3.9600000000000009 0.0899999999999981
317 159 1 -9.0000000000000000 -2.9500000000000011 0.0899999999999981
318 159 1 -8.0000000000000000 -2.9500000000000011 0.0899999999999981
319 160 1 -9.0000000000000000 -1.9400000000000013 0.0899999999999981
320 160 1 -8.0000000000000000 -1.9400000000000013 0.0899999999999981
321 161 1 -9.0000000000000000 -0.9300000000000015 0.0899999999999981
322 161 1 -8.0000000000000000 -0.9300000000000015 0.0899999999999981
323 162 1 -9.0000000000000000 0.0799999999999983 0.0899999999999981
324 162 1 -8.0000000000000000 0.0799999999999983 0.0899999999999981
325 163 1 -9.0000000000000000 1.0899999999999981 0.0899999999999981
326 163 1 -8.0000000000000000 1.0899999999999981 0.0899999999999981
327 164 1 -9.0000000000000000 2.0999999999999979 0.0899999999999981
328 164 1 -8.0000000000000000 2.0999999999999979 0.0899999999999981
329 165 1 -9.0000000000000000 3.1099999999999977 0.0899999999999981
330 165 1 -8.0000000000000000 3.1099999999999977 0.0899999999999981
331 166 1 -9.0000000000000000 4.1199999999999974 0.0899999999999981
332 166 1 -8.0000000000000000 4.1199999999999974 0.0899999999999981
333 167 1 -9.0000000000000000 5.1299999999999972 0.0899999999999981
334 167 1 -8.0000000000000000 5.1299999999999972 0.0899999999999981
335 168 1 -9.0000000000000000 6.1399999999999970 0.0899999999999981
336 168 1 -8.0000000000000000 6.1399999999999970 0.0899999999999981
337 169 1 -9.0000000000000000 7.1499999999999986 0.0899999999999981
338 169 1 -8.0000000000000000 7.1499999999999986 0.0899999999999981
339 170 1 -9.0000000000000000 8.1600000000000001 0.0899999999999981
340 170 1 -8.0000000000000000 8.1600000000000001 0.0899999999999981
341 171 1 -9.0000000000000000 -8.0000000000000000 1.0999999999999979
342 171 1 -8.0000000000000000 -8.0000000000000000 1.0999999999999979
343 172 1 -9.0000000000000000 -6.9900000000000002 1.0999999999999979
344 172 1 -8.0000000000000000 -6.9900000000000002 1.0999999999999979
345 173 1 -9.0000000000000000 -5.9800000000000004 1.0999999999999979
346 173 1 -8.0000000000000000 -5.9800000000000004 1.0999999999999979
347 174 1 -9.0000000000000000 -4.9700000000000006 1.0999999999999979
348 174 1 -8.0000000000000000 -4.9700000000000006 1.0999999999999979
349 175 1 -9.0000000000000000 -3.9600000000000009 1.0999999999999979
350 175 1 -8.0000000000000000 -3.9600000000000009 1.0999999999999979
351 176 1 -9.0000000000000000 -2.9500000000000011 1.0999999999999979
352 176 1 -8.0000000000000000 -2.9500000000000011 1.0999999999999979
353 177 1 -9.0000000000000000 -1.9400000000000013 1.0999999999999979
354 177 1 -8.0000000000000000 -1.9400000000000013 1.0999999999999979
355 178 1 -9.0000000000000000 -0.9300000000000015 1.0999999999999979
356 178 1 -8.0000000000000000 -0.9300000000000015 1.0999999999999979
357 179 1 -9.0000000000000000 0.0799999999999983 1.0999999999999979
358 179 1 -8.0000000000000000 0.0799999999999983 1.0999999999999979
359 180 1 -9.0000000000000000 1.0899999999999981 1.0999999999999979
360 180 1 -8.0000000000000000 1.0899999999999981 1.0999999999999979
361 181 1 -9.0000000000000000 2.0999999999999979 1.0999999999999979
362 181 1 -8.0000000000000000 2.0999999999999979 1.0999999999999979
363 182 1 -9.0000000000000000 3.1099999999999977 1.0999999999999979
364 182 1 -8.0000000000000000 3.1099999999999977 1.0999999999999979
365 183 1 -9.0000000000000000 4.1199999999999974 1.0999999999999979
366 183 1 -8.0000000000000000 4.1199999999999974 1.0999999999999979
367 184 1 -9.0000000000000000 5.1299999999999972 1.0999999999999979
368 184 1 -8.0000000000000000 5.1299999999999972 1.0999999999999979
369 185 1 -9.0000000000000000 6.1399999999999970 1.0999999999999979
370 185 1 -8.0000000000000000 6.1399999999999970 1.0999999999999979
371 186 1 -9.0000000000000000 7.1499999999999986 1.0999999999999979
372 186 1 -8.0000000000000000 7.1499999999999986 1.0999999999999979
373 187 1 -9.0000000000000000 8.1600000000000001 1.0999999999999979
374 187 1 -8.0000000000000000 8.1600000000000001 1.0999999999999979
375 188 1 -9.0000000000000000 -8.0000000000000000 2.1099999999999977
376 188 1 -8.0000000000000000 -8.0000000000000000 2.1099999999999977
377 189 1 -9.0000000000000000 -6.9900000000000002 2.1099999999999977
378 189 1 -8.0000000000000000 -6.9900000000000002 2.1099999999999977
379 190 1 -9.0000000000000000 -5.9800000000000004 2.1099999999999977
380 190 1 -8.0000000000000000 -5.9800000000000004 2.1099999999999977
381 191 1 -9.0000000000000000 -4.9700000000000006 2.1099999999999977
382 191 1 -8.0000000000000000 -4.9700000000000006 2.1099999999999977
383 192 1 -9.0000000000000000 -3.9600000000000009 2.1099999999999977
384 192 1 -8.0000000000000000 -3.9600000000000009 2.1099999999999977
385 193 1 -9.0000000000000000 -2.9500000000000011 2.1099999999999977
386 193 1 -8.0000000000000000 -2.9500000000000011 2.1099999999999977
387 194 1 -9.0000000000000000 -1.9400000000000013 2.1099999999999977
388 194 1 -8.0000000000000000 -1.9400000000000013 2.1099999999999977
389 195 1 -9.0000000000000000 -0.9300000000000015 2.1099999999999977
390 195 1 -8.0000000000000000 -0.9300000000000015 2.1099999999999977
391 196 1 -9.0000000000000000 0.0799999999999983 2.1099999999999977
392 196 1 -8.0000000000000000 0.0799999999999983 2.1099999999999977
393 197 1 -9.0000000000000000 1.0899999999999981 2.1099999999999977
394 197 1 -8.0000000000000000 1.0899999999999981 2.1099999999999977
395 198 1 -9.0000000000000000 2.0999999999999979 2.1099999999999977
396 198 1 -8.0000000000000000 2.0999999999999979 2.1099999999999977
397 199 1 -9.0000000000000000 3.1099999999999977 2.1099999999999977
398 199 1 -8.0000000000000000 3.1099999999999977 2.1099999999999977
399 200 1 -9.0000000000000000 4.1199999999999974 2.1099999999999977
400 200 1 -8.0000000000000000 4.1199999999999974 2.1099999999999977
401 201 1 -9.0000000000000000 5.1299999999999972 2.1099999999999977
402 201 1 -8.0000000000000000 5.1299999999999972 2.1099999999999977
403 202 1 -9.0000000000000000 6.1399999999999970 2.1099999999999977
404 202 1 -8.0000000000000000 6.1399999999999970 2.1099999999999977
405 203 1 -9.0000000000000000 7.1499999999999986 2.1099999999999977
406 203 1 -8.0000000000000000 7.1499999999999986 2.1099999999999977
407 204 1 -9.0000000000000000 8.1600000000000001 2.1099999999999977
408 204 1 -8.0000000000000000 8.1600000000000001 2.1099999999999977
409 205 1 -9.0000000000000000 -8.0000000000000000 3.1199999999999974
410 205 1 -8.0000000000000000 -8.0000000000000000 3.1199999999999974
411 206 1 -9.0000000000000000 -6.9900000000000002 3.1199999999999974
412 206 1 -8.0000000000000000 -6.9900000000000002 3.1199999999999974
413 207 1 -9.0000000000000000 -5.9800000000000004 3.1199999999999974
414 207 1 -8.0000000000000000 -5.9800000000000004 3.1199999999999974
415 208 1 -9.0000000000000000 -4.9700000000000006 3.1199999999999974
416 208 1 -8.0000000000000000 -4.9700000000000006 3.1199999999999974
417 209 1 -9.0000000000000000 -3.9600000000000009 3.1199999999999974
418 209 1 -8.0000000000000000 -3.9600000000000009 3.1199999999999974
419 210 1 -9.0000000000000000 -2.9500000000000011 3.1199999999999974
420 210 1 -8.0000000000000000 -2.9500000000000011 3.1199999999999974
421 211 1 -9.0000000000000000 -1.9400000000000013 3.1199999999999974
422 211 1 -8.0000000000000000 -1.9400000000000013 3.1199999999999974
423 212 1 -9.0000000000000000 -0.9300000000000015 3.1199999999999974
424 212 1 -8.0000000000000000 -0.9300000000000015 3.1199999999999974
425 213 1 -9.0000000000000000 0.0799999999999983 3.1199999999999974
426 213 1 -8.0000000000000000 0.0799999999999983 3.1199999999999974
427 214 1 -9.0000000000000000 1.0899999999999981 3.1199999999999974
428 214 1 -8.0000000000000000 1.0899999999999981 3.1199999999999974
429 215 1 -9.0000000000000000 2.0999999999999979 3.1199999999999974
430 215 1 -8.0000000000000000 2.0999999999999979 3.1199999999999974
431 216 1 -9.0000000000000000 3.1099999999999977 3.1199999999999974
432 216 1 -8.0000000000000000 3.1099999999999977 3.1199999999999974
433 217 1 -9.0000000000000000 4.1199999999999974 3.1199999999999974
434 217 1 -8.0000000000000000 4.1199999999999974 3.1199999999999974
435 218 1 -9.0000000000000000 5.1299999999999972 3.1199999999999974
436 218 1 -8.0000000000000000 5.1299999999999972 3.1199999999999974
437 219 1 -9.0000000000000000 6.1399999999999970 3.1199999999999974
438 219 1 -8.0000000000000000 6.1399999999999970 3.1199999999999974
439 220 1 -9.0000000000000000 7.1499999999999986 3.1199999999999974
440 220 1 -8.0000000000000000 7.1499999999999986 3.1199999999999974
441 221 1 -9.0000000000000000 8.1600000000000001 3.1199999999999974
442 221 1 -8.0000000000000000 8.1600000000000001 3.1199999999999974
443 222 1 -9.0000000000000000 -8.0000000000000000 4.1299999999999972
444 222 1 -8.0000000000000000 -8.0000000000000000 4.1299999999999972
445 223 1 -9.0000000000000000 -6.9900000000000002 4.1299999999999972
446 223 1 -8.0000000000000000 -6.9900000000000002 4.1299999999999972
447 224 1 -9.0000000000000000 -5.9800000000000004 4.1299999999999972
448 224 1 -8.0000000000000000 -5.9800000000000004 4.1299999999999972
449 225 1 -9.0000000000000000 -4.9700000000000006 4.1299999999999972
450 225 1 -8.0000000000000000 -4.9700000000000006 4.1299999999999972
451 226 1 -9.0000000000000000 -3.9600000000000009 4.1299999999999972
452 226 1 -8.0000000000000000 -3.9600000000000009 4.1299999999999972
453 227 1 -9.0000000000000000 -2.9500000000000011 4.1299999999999972
454 227 1 -8.0000000000000000 -2.9500000000000011 4.1299999999999972
455 228 1 -9.0000000000000000 -1.9400000000000013 4.1299999999999972
456 228 1 -8.0000000000000000 -1.9400000000000013 4.1299999999999972
457 229 1 -9.0000000000000000 -0.9300000000000015 4.1299999999999972
458 229 1 -8.0000000000000000 -0.9300000000000015 4.1299999999999972
459 230 1 -9.0000000000000000 0.0799999999999983 4.1299999999999972
460 230 1 -8.0000000000000000 0.0799999999999983 4.1299999999999972
461 231 1 -9.0000000000000000 1.0899999999999981 4.1299999999999972
462 231 1 -8.0000000000000000 1.0899999999999981 4.1299999999999972
463 232 1 -9.0000000000000000 2.0999999999999979 4.1299999999999972
464 232 1 -8.0000000000000000 2.0999999999999979 4.1299999999999972
465 233 1 -9.0000000000000000 3.1099999999999977 4.1299999999999972
466 233 1 -8.0000000000000000 3.1099999999999977 4.1299999999999972
467 234 1 -9.0000000000000000 4.1199999999999974 4.1299999999999972
468 234 1 -8.0000000000000000 4.1199999999999974 4.1299999999999972
469 235 1 -9.0000000000000000 5.1299999999999972 4.1299999999999972
470 235 1 -8.0000000000000000 5.1299999999999972 4.1299999999999972
471 236 1 -9.0000000000000000 6.1399999999999970 4.1299999999999972
472 236 1 -8.0000000000000000 6.1399999999999970 4.1299999999999972
473 237 1 -9.0000000000000000 7.1499999999999986 4.1299999999999972
474 237 1 -8.0000000000000000 7.1499999999999986 4.1299999999999972
475 238 1 -9.0000000000000000 8.1600000000000001 4.1299999999999972
476 238 1 -8.0000000000000000 8.1600000000000001 4.1299999999999972
477 239 1 -9.0000000000000000 -8.0000000000000000 5.1399999999999970
478 239 1 -8.0000000000000000 -8.0000000000000000 5.1399999999999970
479 240 1 -9.0000000000000000 -6.9900000000000002 5.1399999999999970
480 240 1 -8.0000000000000000 -6.9900000000000002 5.1399999999999970
481 241 1 -9.0000000000000000 -5.9800000000000004 5.1399999999999970
482 241 1 -8.0000000000000000 -5.9800000000000004 5.1399999999999970
483 242 1 -9.0000000000000000 -4.9700000000000006 5.1399999999999970
484 242 1 -8.0000000000000000 -4.9700000000000006 5.1399999999999970
485 243 1 -9.0000000000000000 -3.9600000000000009 5.1399999999999970
486 243 1 -8.0000000000000000 -3.9600000000000009 5.1399999999999970
487 244 1 -9.0000000000000000 -2.9500000000000011 5.1399999999999970
488 244 1 -8.0000000000000000 -2.9500000000000011 5.1399999999999970
489 245 1 -9.0000000000000000 -1.9400000000000013 5.1399999999999970
490 245 1 -8.0000000000000000 -1.9400000000000013 5.1399999999999970
491 246 1 -9.0000000000000000 -0.9300000000000015 5.1399999999999970
492 246 1 -8.0000000000000000 -0.9300000000000015 5.1399999999999970
493 247 1 -9.0000000000000000 0.0799999999999983 5.1399999999999970
494 247 1 -8.0000000000000000 0.0799999999999983 5.1399999999999970
495 248 1 -9.0000000000000000 1.0899999999999981 5.1399999999999970
496 248 1 -8.0000000000000000 1.0899999999999981 5.1399999999999970
497 249 1 -9.0000000000000000 2.0999999999999979 5.1399999999999970
498 249 1 -8.0000000000000000 2.0999999999999979 5.1399999999999970
499 250 1 -9.0000000000000000 3.1099999999999977 5.1399999999999970
500 250 1 -8.0000000000000000 3.1099999999999977 5.1399999999999970
501 251 1 -9.0000000000000000 4.1199999999999974 5.1399999999999970
502 251 1 -8.0000000000000000 4.1199999999999974 5.1399999999999970
503 252 1 -9.0000000000000000 5.1299999999999972 5.1399999999999970
504 252 1 -8.0000000000000000 5.1299999999999972 5.1399999999999970
505 253 1 -9.0000000000000000 6.1399999999999970 5.1399999999999970
506 253 1 -8.0000000000000000 6.1399999999999970 5.1399999999999970
507 254 1 -9.0000000000000000 7.1499999999999986 5.1399999999999970
508 254 1 -8.0000000000000000 7.1499999999999986 5.1399999999999970
509 255 1 -9.0000000000000000 8.1600000000000001 5.1399999999999970
510 255 1 -8.0000000000000000 8.1600000000000001 5.1399999999999970
511 256 1 -9.0000000000000000 -8.0000000000000000 6.1499999999999986
512 256 1 -8.0000000000000000 -8.0000000000000000 6.1499999999999986
513 257 1 -9.0000000000000000 -6.9900000000000002 6.1499999999999986
514 257 1 -8.0000000000000000 -6.9900000000000002 6.1499999999999986
515 258 1 -9.0000000000000000 -5.9800000000000004 6.1499999999999986
516 258 1 -8.0000000000000000 -5.9800000000000004 6.1499999999999986
517 259 1 -9.0000000000000000 -4.9700000000000006 6.1499999999999986
518 259 1 -8.0000000000000000 -4.9700000000000006 6.1499999999999986
519 260 1 -9.0000000000000000 -3.9600000000000009 6.1499999999999986
520 260 1 -8.0000000000000000 -3.9600000000000009 6.1499999999999986
521 261 1 -9.0000000000000000 -2.9500000000000011 6.1499999999999986
522 261 1 -8.0000000000000000 -2.9500000000000011 6.1499999999999986
523 262 1 -9.0000000000000000 -1.9400000000000013 6.1499999999999986
524 262 1 -8.0000000000000000 -1.9400000000000013 6.1499999999999986
525 263 1 -9.0000000000000000 -0.9300000000000015 6.1499999999999986
526 263 1 -8.0000000000000000 -0.9300000000000015 6.1499999999999986
527 264 1 -9.0000000000000000 0.0799999999999983 6.1499999999999986
528 264 1 -8.0000000000000000 0.0799999999999983 6.1499999999999986
529 265 1 -9.0000000000000000 1.0899999999999981 6.1499999999999986
530 265 1 -8.0000000000000000 1.0899999999999981 6.1499999999999986
531 266 1 -9.0000000000000000 2.0999999999999979 6.1499999999999986
532 266 1 -8.0000000000000000 2.0999999999999979 6.1499999999999986
533 267 1 -9.0000000000000000 3.1099999999999977 6.1499999999999986
534 267 1 -8.0000000000000000 3.1099999999999977 6.1499999999999986
535 268 1 -9.0000000000000000 4.1199999999999974 6.1499999999999986
536 268 1 -8.0000000000000000 4.1199999999999974 6.1499999999999986
537 269 1 -9.0000000000000000 5.1299999999999972 6.1499999999999986
538 269 1 -8.0000000000000000 5.1299999999999972 6.1499999999999986
539 270 1 -9.0000000000000000 6.1399999999999970 6.1499999999999986
540 270 1 -8.0000000000000000 6.1399999999999970 6.1499999999999986
541 271 1 -9.0000000000000000 7.1499999999999986 6.1499999999999986
542 271 1 -8.0000000000000000 7.1499999999999986 6.1499999999999986
543 272 1 -9.0000000000000000 8.1600000000000001 6.1499999999999986
544 272 1 -8.0000000000000000 8.1600000000000001 6.1499999999999986
545 273 1 -9.0000000000000000 -8.0000000000000000 7.1600000000000001
546 273 1 -8.0000000000000000 -8.0000000000000000 7.1600000000000001
547 274 1 -9.0000000000000000 -6.9900000000000002 7.1600000000000001
548 274 1 -8.0000000000000000 -6.9900000000000002 7.1600000000000001
549 275 1 -9.0000000000000000 -5.9800000000000004 7.1600000000000001
550 275 1 -8.0000000000000000 -5.9800000000000004 7.1600000000000001
551 276 1 -9.0000000000000000 -4.9700000000000006 7.1600000000000001
552 276 1 -8.0000000000000000 -4.9700000000000006 7.1600000000000001
553 277 1 -9.0000000000000000 -3.9600000000000009 7.1600000000000001
554 277 1 -8.0000000000000000 -3.9600000000000009 7.1600000000000001
555 278 1 -9.0000000000000000 -2.9500000000000011 7.1600000000000001
556 278 1 -8.0000000000000000 -2.9500000000000011 7.1600000000000001
557 279 1 -9.0000000000000000 -1.9400000000000013 7.1600000000000001
558 279 1 -8.0000000000000000 -1.9400000000000013 7.1600000000000001
559 280 1 -9.0000000000000000 -0.9300000000000015 7.1600000000000001
560 280 1 -8.0000000000000000 -0.9300000000000015 7.1600000000000001
561 281 1 -9.0000000000000000 0.0799999999999983 7.1600000000000001
562 281 1 -8.0000000000000000 0.0799999999999983 7.1600000000000001
563 282 1 -9.0000000000000000 1.0899999999999981 7.1600000000000001
564 282 1 -8.0000000000000000 1.0899999999999981 7.1600000000000001
565 283 1 -9.0000000000000000 2.0999999999999979 7.1600000000000001
566 283 1 -8.0000000000000000 2.0999999999999979 7.1600000000000001
567 284 1 -9.0000000000000000 3.1099999999999977 7.1600000000000001
568 284 1 -8.0000000000000000 3.1099999999999977 7.1600000000000001
569 285 1 -9.0000000000000000 4.1199999999999974 7.1600000000000001
570 285 1 -8.0000000000000000 4.1199999999999974 7.1600000000000001
571 286 1 -9.0000000000000000 5.1299999999999972 7.1600000000000001
572 286 1 -8.0000000000000000 5.1299999999999972 7.1600000000000001
573 287 1 -9.0000000000000000 6.1399999999999970 7.1600000000000001
574 287 1 -8.0000000000000000 6.1399999999999970 7.1600000000000001
575 288 1 -9.0000000000000000 7.1499999999999986 7.1600000000000001
576 288 1 -8.0000000000000000 7.1499999999999986 7.1600000000000001
577 289 1 -9.0000000000000000 8.1600000000000001 7.1600000000000001
578 289 1 -8.0000000000000000 8.1600000000000001 7.1600000000000001
579 290 1 -9.0000000000000000 -8.0000000000000000 8.1700000000000017
580 290 1 -8.0000000000000000 -8.0000000000000000 8.1700000000000017
581 291 1 -9.0000000000000000 -6.9900000000000002 8.1700000000000017
582 291 1 -8.0000000000000000 -6.9900000000000002 8.1700000000000017
583 292 1 -9.0000000000000000 -5.9800000000000004 8.1700000000000017
584 292 1 -8.0000000000000000 -5.9800000000000004 8.1700000000000017
585 293 1 -9.0000000000000000 -4.9700000000000006 8.1700000000000017
586 293 1 -8.0000000000000000 -4.9700000000000006 8.1700000000000017
587 294 1 -9.0000000000000000 -3.9600000000000009 8.1700000000000017
588 294 1 -8.0000000000000000 -3.9600000000000009 8.1700000000000017
589 295 1 -9.0000000000000000 -2.9500000000000011 8.1700000000000017
590 295 1 -8.0000000000000000 -2.9500000000000011 8.1700000000000017
591 296 1 -9.0000000000000000 -1.9400000000000013 8.1700000000000017
592 296 1 -8.0000000000000000 -1.9400000000000013 8.1700000000000017
593 297 1 -9.0000000000000000 -0.9300000000000015 8.1700000000000017
594 297 1 -8.0000000000000000 -0.9300000000000015 8.1700000000000017
595 298 1 -9.0000000000000000 0.0799999999999983 8.1700000000000017
596 298 1 -8.0000000000000000 0.0799999999999983 8.1700000000000017
597 299 1 -9.0000000000000000 1.0899999999999981 8.1700000000000017
598 299 1 -8.0000000000000000 1.0899999999999981 8.1700000000000017
599 300 1 -9.0000000000000000 2.0999999999999979 8.1700000000000017
600 300 1 -8.0000000000000000 2.0999999999999979 8.1700000000000017
601 301 1 -9.0000000000000000 3.1099999999999977 8.1700000000000017
602 301 1 -8.0000000000000000 3.1099999999999977 8.1700000000000017
603 302 1 -9.0000000000000000 4.1199999999999974 8.1700000000000017
604 302 1 -8.0000000000000000 4.1199999999999974 8.1700000000000017
605 303 1 -9.0000000000000000 5.1299999999999972 8.1700000000000017
606 303 1 -8.0000000000000000 5.1299999999999972 8.1700000000000017
607 304 1 -9.0000000000000000 6.1399999999999970 8.1700000000000017
608 304 1 -8.0000000000000000 6.1399999999999970 8.1700000000000017
609 305 1 -9.0000000000000000 7.1499999999999986 8.1700000000000017
610 305 1 -8.0000000000000000 7.1499999999999986 8.1700000000000017
611 306 1 -9.0000000000000000 8.1600000000000001 8.1700000000000017
612 306 1 -8.0000000000000000 8.1600000000000001 8.1700000000000017
613 307 1 -9.0000000000000000 -8.0000000000000000 9.1800000000000033
614 307 1 -8.0000000000000000 -8.0000000000000000 9.1800000000000033
615 308 1 -9.0000000000000000 -6.9900000000000002 9.1800000000000033
616 308 1 -8.0000000000000000 -6.9900000000000002 9.1800000000000033
617 309 1 -9.0000000000000000 -5.9800000000000004 9.1800000000000033
618 309 1 -8.0000000000000000 -5.9800000000000004 9.1800000000000033
619 310 1 -9.0000000000000000 -4.9700000000000006 9.1800000000000033
620 310 1 -8.0000000000000000 -4.9700000000000006 9.1800000000000033
621 311 1 -9.0000000000000000 -3.9600000000000009 9.1800000000000033
622 311 1 -8.0000000000000000 -3.9600000000000009 9.1800000000000033
623 312 1 -9.0000000000000000 -2.9500000000000011 9.1800000000000033
624 312 1 -8.0000000000000000 -2.9500000000000011 9.1800000000000033
625 313 1 -9.0000000000000000 -1.9400000000000013 9.1800000000000033
626 313 1 -8.0000000000000000 -1.9400000000000013 9.1800000000000033
627 314 1 -9.0000000000000000 -0.9300000000000015 9.1800000000000033
628 314 1 -8.0000000000000000 -0.9300000000000015 9.1800000000000033
629 315 1 -9.0000000000000000 0.0799999999999983 9.1800000000000033
630 315 1 -8.0000000000000000 0.0799999999999983 9.1800000000000033
631 316 1 -9.0000000000000000 1.0899999999999981 9.1800000000000033
632 316 1 -8.0000000000000000 1.0899999999999981 9.1800000000000033
633 317 1 -9.0000000000000000 2.0999999999999979 9.1800000000000033
634 317 1 -8.0000000000000000 2.0999999999999979 9.1800000000000033
635 318 1 -9.0000000000000000 3.1099999999999977 9.1800000000000033
636 318 1 -8.0000000000000000 3.1099999999999977 9.1800000000000033
637 319 1 -9.0000000000000000 4.1199999999999974 9.1800000000000033
638 319 1 -8.0000000000000000 4.1199999999999974 9.1800000000000033
639 320 1 -9.0000000000000000 5.1299999999999972 9.1800000000000033
640 320 1 -8.0000000000000000 5.1299999999999972 9.1800000000000033
641 321 1 -9.0000000000000000 6.1399999999999970 9.1800000000000033
642 321 1 -8.0000000000000000 6.1399999999999970 9.1800000000000033
643 322 1 -9.0000000000000000 7.1499999999999986 9.1800000000000033
644 322 1 -8.0000000000000000 7.1499999999999986 9.1800000000000033
645 323 1 -9.0000000000000000 8.1600000000000001 9.1800000000000033
646 323 1 -8.0000000000000000 8.1600000000000001 9.1800000000000033
647 324 1 -6.9900000000000002 -8.0000000000000000 -9.0000000000000000
648 324 1 -5.9900000000000002 -8.0000000000000000 -9.0000000000000000
649 325 1 -6.9900000000000002 -6.9900000000000002 -9.0000000000000000
650 325 1 -5.9900000000000002 -6.9900000000000002 -9.0000000000000000
651 326 1 -6.9900000000000002 -5.9800000000000004 -9.0000000000000000
652 326 1 -5.9900000000000002 -5.9800000000000004 -9.0000000000000000
653 327 1 -6.9900000000000002 -4.9700000000000006 -9.0000000000000000
654 327 1 -5.9900000000000002 -4.9700000000000006 -9.0000000000000000
655 328 1 -6.9900000000000002 -3.9600000000000009 -9.0000000000000000
656 328 1 -5.9900000000000002 -3.9600000000000009 -9.0000000000000000
657 329 1 -6.9900000000000002 -2.9500000000000011 -9.0000000000000000
658 329 1 -5.9900000000000002 -2.9500000000000011 -9.0000000000000000
659 330 1 -6.9900000000000002 -1.9400000000000013 -9.0000000000000000
660 330 1 -5.9900000000000002 -1.9400000000000013 -9.0000000000000000
661 331 1 -6.9900000000000002 -0.9300000000000015 -9.0000000000000000
662 331 1 -5.9900000000000002 -0.9300000000000015 -9.0000000000000000
663 332 1 -6.9900000000000002 0.0799999999999983 -9.0000000000000000
664 332 1 -5.9900000000000002 0.0799999999999983 -9.0000000000000000
665 333 1 -6.9900000000000002 1.0899999999999981 -9.0000000000000000
666 333 1 -5.9900000000000002 1.0899999999999981 -9.0000000000000000
667 334 1 -6.9900000000000002 2.0999999999999979 -9.0000000000000000
668 334 1 -5.9900000000000002 2.0999999999999979 -9.0000000000000000
669 335 1 -6.9900000000000002 3.1099999999999977 -9.0000000000000000
670 335 1 -5.9900000000000002 3.1099999999999977 -9.0000000000000000
671 336 1 -6.9900000000000002 4.1199999999999974 -9.0000000000000000
672 336 1 -5.9900000000000002 4.1199999999999974 -9.0000000000000000
673 337 1 -6.9900000000000002 5.1299999999999972 -9.0000000000000000
674 337 1 -5.9900000000000002 5.1299999999999972 -9.0000000000000000
675 338 1 -6.9900000000000002 6.1399999999999970 -9.0000000000000000
676 338 1 -5.9900000000000002 6.1399999999999970 -9.0000000000000000
677 339 1 -6.9900000000000002 7.1499999999999986 -9.0000000000000000
678 339 1 -5.9900000000000002 7.1499999999999986 -9.0000000000000000
679 340 1 -6.9900000000000002 8.1600000000000001 -9.0000000000000000
680 340 1 -5.9900000000000002 8.1600000000000001 -9.0000000000000000
681 341 1 -6.9900000000000002 -8.0000000000000000 -7.9900000000000002
682 341 1 -5.9900000000000002 -8.0000000000000000 -7.9900000000000002
683 342 1 -6.9900000000000002 -6.9900000000000002 -7.9900000000000002
684 342 1 -5.9900000000000002 -6.9900000000000002 -7.9900000000000002
685 343 1 -6.9900000000000002 -5.9800000000000004 -7.9900000000000002
686 343 1 -5.9900000000000002 -5.9800000000000004 -7.9900000000000002
687 344 1 -6.9900000000000002 -4.9700000000000006 -7.9900000000000002
688 344 1 -5.9900000000000002 -4.9700000000000006 -7.9900000000000002
689 345 1 -6.9900000000000002 -3.9600000000000009 -7.9900000000000002
690 345 1 -5.9900000000000002 -3.9600000000000009 -7.9900000000000002
691 346 1 -6.9900000000000002 -2.9500000000000011 -7.9900000000000002
692 346 1 -5.9900000000000002 -2.9500000000000011 -7.9900000000000002
693 347 1 -6.9900000000000002 -1.9400000000000013 -7.9900000000000002
694 347 1 -5.9900000000000002 -1.9400000000000013 -7.9900000000000002
695 348 1 -6.9900000000000002 -0.9300000000000015 -7.9900000000000002
696 348 1 -5.9900000000000002 -0.9300000000000015 -7.9900000000000002
697 349 1 -6.9900000000000002 0.0799999999999983 -7.9900000000000002
698 349 1 -5.9900000000000002 0.0799999999999983 -7.9900000000000002
699 350 1 -6.9900000000000002 1.0899999999999981 -7.9900000000000002
700 350 1 -5.9900000000000002 1.0899999999999981 -7.9900000000000002
701 351 1 -6.9900000000000002 2.0999999999999979 -7.9900000000000002
702 351 1 -5.9900000000000002 2.0999999999999979 -7.9900000000000002
703 352 1 -6.9900000000000002 3.1099999999999977 -7.9900000000000002
704 352 1 -5.9900000000000002 3.1099999999999977 -7.9900000000000002
705 353 1 -6.9900000000000002 4.1199999999999974 -7.9900000000000002
706 353 1 -5.9900000000000002 4.1199999999999974 -7.9900000000000002
707 354 1 -6.9900000000000002 5.1299999999999972 -7.9900000000000002
708 354 1 -5.9900000000000002 5.1299999999999972 -7.9900000000000002
709 355 1 -6.9900000000000002 6.1399999999999970 -7.9900000000000002
710 355 1 -5.9900000000000002 6.1399999999999970 -7.9900000000000002
711 356 1 -6.9900000000000002 7.1499999999999986 -7.9900000000000002
712 356 1 -5.9900000000000002 7.1499999999999986 -7.9900000000000002
713 357 1 -6.9900000000000002 8.1600000000000001 -7.9900000000000002
714 357 1 -5.9900000000000002 8.1600000000000001 -7.9900000000000002
715 358 1 -6.9900000000000002 -8.0000000000000000 -6.9800000000000004
716 358 1 -5.9900000000000002 -8.0000000000000000 -6.9800000000000004
717 359 1 -6.9900000000000002 -6.9900000000000002 -6.9800000000000004
718 359 1 -5.9900000000000002 -6.9900000000000002 -6.9800000000000004
719 360 1 -6.9900000000000002 -5.9800000000000004 -6.9800000000000004
720 360 1 -5.9900000000000002 -5.9800000000000004 -6.9800000000000004
721 361 1 -6.9900000000000002 -4.9700000000000006 -6.9800000000000004
722 361 1 -5.9900000000000002 -4.9700000000000006 -6.9800000000000004
723 362 1 -6.9900000000000002 -3.9600000000000009 -6.9800000000000004
724 362 1 -5.9900000000000002 -3.9600000000000009 -6.9800000000000004
725 363 1 -6.9900000000000002 -2.9500000000000011 -6.9800000000000004
726 363 1 -5.9900000000000002 -2.9500000000000011 -6.9800000000000004
727 364 1 -6.9900000000000002 -1.9400000000000013 -6.9800000000000004
728 364 1 -5.9900000000000002 -1.9400000000000013 -6.9800000000000004
729 365 1 -6.9900000000000002 -0.9300000000000015 -6.9800000000000004
730 365 1 -5.9900000000000002 -0.9300000000000015 -6.9800000000000004
731 366 1 -6.9900000000000002 0.0799999999999983 -6.9800000000000004
732 366 1 -5.9900000000000002 0.0799999999999983 -6.9800000000000004
733 367 1 -6.9900000000000002 1.0899999999999981 -6.9800000000000004
734 367 1 -5.9900000000000002 1.0899999999999981 -6.9800000000000004
735 368 1 -6.9900000000000002 2.0999999999999979 -6.9800000000000004
736 368 1 -5.9900000000000002 2.0999999999999979 -6.9800000000000004
737 369 1 -6.9900000000000002 3.1099999999999977 -6.9800000000000004
738 369 1 -5.9900000000000002 3.1099999999999977 -6.9800000000000004
739 370 1 -6.9900000000000002 4.1199999999999974 -6.9800000000000004
740 370 1 -5.9900000000000002 4.1199999999999974 -6.9800000000000004
741 371 1 -6.9900000000000002 5.1299999999999972 -6.9800000000000004
742 371 1 -5.9900000000000002 5.1299999999999972 -6.9800000000000004
743 372 1 -6.9900000000000002 6.1399999999999970 -6.9800000000000004
744 372 1 -5.9900000000000002 6.1399999999999970 -6.9800000000000004
745 373 1 -6.9900000000000002 7.1499999999999986 -6.9800000000000004
746 373 1 -5.9900000000000002 7.1499999999999986 -6.9800000000000004
747 374 1 -6.9900000000000002 8.1600000000000001 -6.9800000000000004
748 374 1 -5.9900000000000002 8.1600000000000001 -6.9800000000000004
749 375 1 -6.9900000000000002 -8.0000000000000000 -5.9700000000000006
750 375 1 -5.9900000000000002 -8.0000000000000000 -5.9700000000000006
751 376 1 -6.9900000000000002 -6.9900000000000002 -5.9700000000000006
752 376 1 -5.9900000000000002 -6.9900000000000002 -5.9700000000000006
753 377 1 -6.9900000000000002 -5.9800000000000004 -5.9700000000000006
754 377 1 -5.9900000000000002 -5.9800000000000004 -5.9700000000000006
755 378 1 -6.9900000000000002 -4.9700000000000006 -5.9700000000000006
756 378 1 -5.9900000000000002 -4.9700000000000006 -5.9700000000000006
757 379 1 -6.9900000000000002 -3.9600000000000009 -5.9700000000000006
758 379 1 -5.9900000000000002 -3.9600000000000009 -5.9700000000000006
759 380 1 -6.9900000000000002 -2.9500000000000011 -5.9700000000000006
760 380 1 -5.9900000000000002 -2.9500000000000011 -5.9700000000000006
761 381 1 -6.9900000000000002 -1.9400000000000013 -5.9700000000000006
762 381 1 -5.9900000000000002 -1.9400000000000013 -5.9700000000000006
763 382 1 -6.9900000000000002 -0.9300000000000015 -5.9700000000000006
764 382 1 -5.9900000000000002 -0.9300000000000015 -5.9700000000000006
765 383 1 -6.9900000000000002 0.0799999999999983 -5.9700000000000006
766 383 1 -5.9900000000000002 0.0799999999999983 -5.9700000000000006
767 384 1 -6.9900000000000002 1.0899999999999981 -5.9700000000000006
768 384 1 -5.9900000000000002 1.0899999999999981 -5.9700000000000006
769 385 1 -6.9900000000000002 2.0999999999999979 -5.9700000000000006
770 385 1 -5.9900000000000002 2.0999999999999979 -5.9700000000000006
771 386 1 -6.9900000000000002 3.1099999999999977 -5.9700000000000006
772 386 1 -5.9900000000000002 3.1099999999999977 -5.9700000000000006
773 387 1 -6.9900000000000002 4.1199999999999974 -5.9700000000000006
774 387 1 -5.9900000000000002 4.1199999999999974 -5.9700000000000006
775 388 1 -6.9900000000000002 5.1299999999999972 -5.9700000000000006
776 388 1 -5.9900000000000002 5.1299999999999972 -5.9700000000000006
777 389 1 -6.9900000000000002 6.1399999999999970 -5.9700000000000006
778 389 1 -5.9900000000000002 6.1399999999999970 -5.9700000000000006
779 390 1 -6.9900000000000002 7.1499999999999986 -5.9700000000000006
780 390 1 -5.9900000000000002 7.1499999999999986 -5.9700000000000006
781 391 1 -6.9900000000000002 8.1600000000000001 -5.9700000000000006
782 391 1 -5.9900000000000002 8.1600000000000001 -5.9700000000000006
783 392 1 -6.9900000000000002 -8.0000000000000000 -4.9600000000000009
784 392 1 -5.9900000000000002 -8.0000000000000000 -4.9600000000000009
785 393 1 -6.9900000000000002 -6.9900000000000002 -4.9600000000000009
786 393 1 -5.9900000000000002 -6.9900000000000002 -4.9600000000000009
787 394 1 -6.9900000000000002 -5.9800000000000004 -4.9600000000000009
788 394 1 -5.9900000000000002 -5.9800000000000004 -4.9600000000000009
789 395 1 -6.9900000000000002 -4.9700000000000006 -4.9600000000000009
790 395 1 -5.9900000000000002 -4.9700000000000006 -4.9600000000000009
791 396 1 -6.9900000000000002 -3.9600000000000009 -4.9600000000000009
792 396 1 -5.9900000000000002 -3.9600000000000009 -4.9600000000000009
793 397 1 -6.9900000000000002 -2.9500000000000011 -4.9600000000000009
794 397 1 -5.9900000000000002 -2.9500000000000011 -4.9600000000000009
795 398 1 -6.9900000000000002 -1.9400000000000013 -4.9600000000000009
796 398 1 -5.9900000000000002 -1.9400000000000013 -4.9600000000000009
797 399 1 -6.9900000000000002 -0.9300000000000015 -4.9600000000000009
798 399 1 -5.9900000000000002 -0.9300000000000015 -4.9600000000000009
799 400 1 -6.9900000000000002 0.0799999999999983 -4.9600000000000009
800 400 1 -5.9900000000000002 0.0799999999999983 -4.9600000000000009
801 401 1 -6.9900000000000002 1.0899999999999981 -4.9600000000000009
802 401 1 -5.9900000000000002 1.0899999999999981 -4.9600000000000009
803 402 1 -6.9900000000000002 2.0999999999999979 -4.9600000000000009
804 402 1 -5.9900000000000002 2.0999999999999979 -4.9600000000000009
805 403 1 -6.9900000000000002 3.1099999999999977 -4.9600000000000009
806 403 1 -5.9900000000000002 3.1099999999999977 -4.9600000000000009
807 404 1 -6.9900000000000002 4.1199999999999974 -4.9600000000000009
808 404 1 -5.9900000000000002 4.1199999999999974 -4.9600000000000009
809 405 1 -6.9900000000000002 5.1299999999999972 -4.9600000000000009
810 405 1 -5.9900000000000002 5.1299999999999972 -4.9600000000000009
811 406 1 -6.9900000000000002 6.1399999999999970 -4.9600000000000009
812 406 1 -5.9900000000000002 6.1399999999999970 -4.9600000000000009
813 407 1 -6.9900000000000002 7.1499999999999986 -4.9600000000000009
814 407 1 -5.9900000000000002 7.1499999999999986 -4.9600000000000009
815 408 1 -6.9900000000000002 8.1600000000000001 -4.9600000000000009
816 408 1 -5.9900000000000002 8.1600000000000001 -4.9600000000000009
817 409 1 -6.9900000000000002 -8.0000000000000000 -3.9500000000000011
818 409 1 -5.9900000000000002 -8.0000000000000000 -3.9500000000000011
819 410 1 -6.9900000000000002 -6.9900000000000002 -3.9500000000000011
820 410 1 -5.9900000000000002 -6.9900000000000002 -3.9500000000000011
821 411 1 -6.9900000000000002 -5.9800000000000004 -3.9500000000000011
822 411 1 -5.9900000000000002 -5.9800000000000004 -3.9500000000000011
823 412 1 -6.9900000000000002 -4.9700000000000006 -3.9500000000000011
824 412 1 -5.9900000000000002 -4.9700000000000006 -3.9500000000000011
825 413 1 -6.9900000000000002 -3.9600000000000009 -3.9500000000000011
826 413 1 -5.9900000000000002 -3.9600000000000009 -3.9500000000000011
827 414 1 -6.9900000000000002 -2.9500000000000011 -3.9500000000000011
828 414 1 -5.9900000000000002 -2.9500000000000011 -3.9500000000000011
829 415 1 -6.9900000000000002 -1.9400000000000013 -3.9500000000000011
830 415 1 -5.9900000000000002 -1.9400000000000013 -3.9500000000000011
831 416 1 -6.9900000000000002 -0.9300000000000015 -3.9500000000000011
832 416 1 -5.9900000000000002 -0.9300000000000015 -3.9500000000000011
833 417 1 -6.9900000000000002 0.0799999999999983 -3.9500000000000011
834 417 1 -5.9900000000000002 0.0799999999999983 -3.9500000000000011
835 418 1 -6.9900000000000002 1.0899999999999981 -3.9500000000000011
836 418 1 -5.9900000000000002 1.0899999999999981 -3.9500000000000011
837 419 1 -6.9900000000000002 2.0999999999999979 -3.9500000000000011
838 419 1 -5.9900000000000002 2.0999999999999979 -3.9500000000000011
839 420 1 -6.9900000000000002 3.1099999999999977 -3.9500000000000011
840 420 1 -5.9900000000000002 3.1099999999999977 -3.9500000000000011
841 421 1 -6.9900000000000002 4.1199999999999974 -3.9500000000000011
842 421 1 -5.9900000000000002 4.1199999999999974 -3.9500000000000011
843 422 1 -6.9900000000000002 5.1299999999999972 -3.9500000000000011
844 422 1 -5.9900000000000002 5.1299999999999972 -3.9500000000000011
845 423 1 -6.9900000000000002 6.1399999999999970 -3.9500000000000011
846 423 1 -5.9900000000000002 6.1399999999999970 -3.9500000000000011
847 424 1 -6.9900000000000002 7.1499999999999986 -3.9500000000000011
848 424 1 -5.9900000000000002 7.1499999999999986 -3.9500000000000011
849 425 1 -6.9900000000000002 8.1600000000000001 -3.9500000000000011
850 425 1 -5.9900000000000002 8.1600000000000001 -3.9500000000000011
851 426 1 -6.9900000000000002 -8.0000000000000000 -2.9400000000000013
852 426 1 -5.9900000000000002 -8.0000000000000000 -2.9400000000000013
853 427 1 -6.9900000000000002 -6.9900000000000002 -2.9400000000000013
854 427 1 -5.9900000000000002 -6.9900000000000002 -2.9400000000000013
855 428 1 -6.9900000000000002 -5.9800000000000004 -2.9400000000000013
856 428 1 -5.9900000000000002 -5.9800000000000004 -2.9400000000000013
857 429 1 -6.9900000000000002 -4.9700000000000006 -2.9400000000000013
858 429 1 -5.9900000000000002 -4.9700000000000006 -2.9400000000000013
859 430 1 -6.9900000000000002 -3.9600000000000009 -2.9400000000000013
860 430 1 -5.9900000000000002 -3.9600000000000009 -2.9400000000000013
861 431 1 -6.9900000000000002 -2.9500000000000011 -2.9400000000000013
862 431 1 -5.9900000000000002 -2.9500000000000011 -2.9400000000000013
863 432 1 -6.9900000000000002 -1.9400000000000013 -2.9400000000000013
864 432 1 -5.9900000000000002 -1.9400000000000013 -2.9400000000000013
865 433 1 -6.9900000000000002 -0.9300000000000015 -2.9400000000000013
866 433 1 -5.9900000000000002 -0.9300000000000015 -2.9400000000000013
867 434 1 -6.9900000000000002 0.0799999999999983 -2.9400000000000013
868 434 1 -5.9900000000000002 0.0799999999999983 -2.9400000000000013
869 435 1 -6.9900000000000002 1.0899999999999981 -2.9400000000000013
870 435 1 -5.9900000000000002 1.0899999999999981 -2.9400000000000013
871 436 1 -6.9900000000000002 2.0999999999999979 -2.9400000000000013
872 436 1 -5.9900000000000002 2.0999999999999979 -2.9400000000000013
873 437 1 -6.9900000000000002 3.1099999999999977 -2.9400000000000013
874 437 1 -5.9900000000000002 3.1099999999999977 -2.9400000000000013
875 438 1 -6.9900000000000002 4.1199999999999974 -2.9400000000000013
876 438 1 -5.9900000000000002 4.1199999999999974 -2.9400000000000013
877 439 1 -6.9900000000000002 5.1299999999999972 -2.9400000000000013
878 439 1 -5.9900000000000002 5.1299999999999972 -2.9400000000000013
879 440 1 -6.9900000000000002 6.1399999999999970 -2.9400000000000013
880 440 1 -5.9900000000000002 6.1399999999999970 -2.9400000000000013
881 441 1 -6.9900000000000002 7.1499999999999986 -2.9400000000000013
882 441 1 -5.9900000000000002 7.1499999999999986 -2.9400000000000013
883 442 1 -6.9900000000000002 8.1600000000000001 -2.9400000000000013
884 442 1 -5.9900000000000002 8.1600000000000001 -2.9400000000000013
885 443 1 -6.9900000000000002 -8.0000000000000000 -1.9300000000000015
886 443 1 -5.9900000000000002 -8.0000000000000000 -1.9300000000000015
887 444 1 -6.9900000000000002 -6.9900000000000002 -1.9300000000000015
888 444 1 -5.9900000000000002 -6.9900000000000002 -1.9300000000000015
889 445 1 -6.9900000000000002 -5.9800000000000004 -1.9300000000000015
890 445 1 -5.9900000000000002 -5.9800000000000004 -1.9300000000000015
891 446 1 -6.9900000000000002 -4.9700000000000006 -1.9300000000000015
892 446 1 -5.9900000000000002 -4.9700000000000006 -1.9300000000000015
893 447 1 -6.9900000000000002 -3.9600000000000009 -1.9300000000000015
894 447 1 -5.9900000000000002 -3.9600000000000009 -1.9300000000000015
895 448 1 -6.9900000000000002 -2.9500000000000011 -1.9300000000000015
896 448 1 -5.9900000000000002 -2.9500000000000011 -1.9300000000000015
897 449 1 -6.9900000000000002 -1.9400000000000013 -1.9300000000000015
898 449 1 -5.9900000000000002 -1.9400000000000013 -1.9300000000000015
899 450 1 -6.9900000000000002 -0.9300000000000015 -1.9300000000000015
900 450 1 -5.9900000000000002 -0.9300000000000015 -1.9300000000000015
901 451 1 -6.9900000000000002 0.0799999999999983 -1.9300000000000015
902 451 1 -5.9900000000000002 0.0799999999999983 -1.9300000000000015
903 452 1 -6.9900000000000002 1.0899999999999981 -1.9300000000000015
904 452 1 -5.9900000000000002 1.0899999999999981 -1.9300000000000015
905 453 1 -6.9900000000000002 2.0999999999999979 -1.9300000000000015
906 453 1 -5.9900000000000002 2.0999999999999979 -1.9300000000000015
907 454 1 -6.9900000000000002 3.1099999999999977 -1.9300000000000015
908 454 1 -5.9900000000000002 3.1099999999999977 -1.9300000000000015
909 455 1 -6.9900000000000002 4.1199999999999974 -1.9300000000000015
910 455 1 -5.9900000000000002 4.1199999999999974 -1.9300000000000015
911 456 1 -6.9900000000000002 5.1299999999999972 -1.9300000000000015
912 456 1 -5.9900000000000002 5.1299999999999972 -1.9300000000000015
913 457 1 -6.9900000000000002 6.1399999999999970 -1.9300000000000015
914 457 1 -5.9900000000000002 6.1399999999999970 -1.9300000000000015
915 458 1 -6.9900000000000002 7.1499999999999986 -1.9300000000000015
916 458 1 -5.9900000000000002 7.1499999999999986 -1.9300000000000015
917 459 1 -6.9900000000000002 8.1600000000000001 -1.9300000000000015
918 459 1 -5.9900000000000002 8.1600000000000001 -1.9300000000000015
919 460 1 -6.9900000000000002 -8.0000000000000000 -0.9200000000000017
920 460 1 -5.9900000000000002 -8.0000000000000000 -0.9200000000000017
921 461 1 -6.9900000000000002 -6.9900000000000002 -0.9200000000000017
922 461 1 -5.9900000000000002 -6.9900000000000002 -0.9200000000000017
923 462 1 -6.9900000000000002 -5.9800000000000004 -0.9200000000000017
924 462 1 -5.9900000000000002 -5.9800000000000004 -0.9200000000000017
925 463 1 -6.9900000000000002 -4.9700000000000006 -0.9200000000000017
926 463 1 -5.9900000000000002 -4.9700000000000006 -0.9200000000000017
927 464 1 -6.9900000000000002 -3.9600000000000009 -0.9200000000000017
928 464 1 -5.9900000000000002 -3.9600000000000009 -0.9200000000000017
929 465 1 -6.9900000000000002 -2.9500000000000011 -0.9200000000000017
930 465 1 -5.9900000000000002 -2.9500000000000011 -0.9200000000000017
931 466 1 -6.9900000000000002 -1.9400000000000013 -0.9200000000000017
932 466 1 -5.9900000000000002 -1.9400000000000013 -0.9200000000000017
933 467 1 -6.9900000000000002 -0.9300000000000015 -0.9200000000000017
934 467 1 -5.9900000000000002 -0.9300000000000015 -0.9200000000000017
935 468 1 -6.9900000000000002 0.0799999999999983 -0.9200000000000017
936 468 1 -5.9900000000000002 0.0799999999999983 -0.9200000000000017
937 469 1 -6.9900000000000002 1.0899999999999981 -0.9200000000000017
938 469 1 -5.9900000000000002 1.0899999999999981 -0.9200000000000017
939 470 1 -6.9900000000000002 2.0999999999999979 -0.9200000000000017
940 470 1 -5.9900000000000002 2.0999999999999979 -0.9200000000000017
941 471 1 -6.9900000000000002 3.1099999999999977 -0.9200000000000017
942 471 1 -5.9900000000000002 3.1099999999999977 -0.9200000000000017
943 472 1 -6.9900000000000002 4.1199999999999974 -0.9200000000000017
944 472 1 -5.9900000000000002 4.1199999999999974 -0.9200000000000017
945 473 1 -6.9900000000000002 5.1299999999999972 -0.9200000000000017
946 473 1 -5.9900000000000002 5.1299999999999972 -0.9200000000000017
947 474 1 -6.9900000000000002 6.1399999999999970 -0.9200000000000017
948 474 1 -5.9900000000000002 6.1399999999999970 -0.9200000000000017
949 475 1 -6.9900000000000002 7.1499999999999986 -0.9200000000000017
950 475 1 -5.9900000000000002 7.1499999999999986 -0.9200000000000017
951 476 1 -6.9900000000000002 8.1600000000000001 -0.9200000000000017
952 476 1 -5.9900000000000002 8.1600000000000001 -0.9200000000000017
953 477 1 -6.9900000000000002 -8.0000000000000000 0.0899999999999981
954 477 1 -5.9900000000000002 -8.0000000000000000 0.0899999999999981
955 478 1 -6.9900000000000002 -6.9900000000000002 0.0899999999999981
956 478 1 -5.9900000000000002 -6.9900000000000002 0.0899999999999981
957 479 1 -6.9900000000000002 -5.9800000000000004 0.0899999999999981
958 479 1 -5.9900000000000002 -5.9800000000000004 0.0899999999999981
959 480 1 -6.9900000000000002 -4.9700000000000006 0.0899999999999981
960 480 1 -5.9900000000000002 -4.9700000000000006 0.0899999999999981
961 481 1 -6.9900000000000002 -3.9600000000000009 0.0899999999999981
962 481 1 -5.9900000000000002 -3.9600000000000009 0.0899999999999981
963 482 1 -6.9900000000000002 -2.9500000000000011 0.0899999999999981
964 482 1 -5.9900000000000002 -2.9500000000000011 0.0899999999999981
965 483 1 -6.9900000000000002 -1.9400000000000013 0.0899999999999981
966 483 1 -5.9900000000000002 -1.9400000000000013 0.0899999999999981
967 484 1 -6.9900000000000002 -0.9300000000000015 0.0899999999999981
968 484 1 -5.9900000000000002 -0.9300000000000015 0.0899999999999981
969 485 1 -6.9900000000000002 0.0799999999999983 0.0899999999999981
970 485 1 -5.9900000000000002 0.0799999999999983 0.0899999999999981
971 486 1 -6.9900000000000002 1.0899999999999981 0.0899999999999981
972 486 1 -5.9900000000000002 1.0899999999999981 0.0899999999999981
973 487 1 -6.9900000000000002 2.0999999999999979 0.0899999999999981
974 487 1 -5.9900000000000002 2.0999999999999979 0.0899999999999981
975 488 1 -6.9900000000000002 3.1099999999999977 0.0899999999999981
976 488 1 -5.9900000000000002 3.1099999999999977 0.0899999999999981
977 489 1 -6.9900000000000002 4.1199999999999974 0.0899999999999981
978 489 1 -5.9900000000000002 4.1199999999999974 0.0899999999999981
979 490 1 -6.9900000000000002 5.1299999999999972 0.0899999999999981
980 490 1 -5.9900000000000002 5.1299999999999972 0.0899999999999981
981 491 1 -6.9900000000000002 6.1399999999999970 0.0899999999999981
982 491 1 -5.9900000000000002 6.1399999999999970 0.0899999999999981
983 492 1 -6.9900000000000002 7.1499999999999986 0.0899999999999981
984 492 1 -5.9900000000000002 7.1499999999999986 0.0899999999999981
985 493 1 -6.9900000000000002 8.1600000000000001 0.0899999999999981
986 493 1 -5.9900000000000002 8.1600000000000001 0.0899999999999981
987 494 1 -6.9900000000000002 -8.0000000000000000 1.0999999999999979
988 494 1 -5.9900000000000002 -8.0000000000000000 1.0999999999999979
989 495 1 -6.9900000000000002 -6.9900000000000002 1.0999999999999979
990 495 1 -5.9900000000000002 -6.9900000000000002 1.0999999999999979
991 496 1 -6.9900000000000002 -5.9800000000000004 1.0999999999999979
992 496 1 -5.9900000000000002 -5.9800000000000004 1.0999999999999979
993 497 1 -6.9900000000000002 -4.9700000000000006 1.0999999999999979
994 497 1 -5.9900000000000002 -4.9700000000000006 1.0999999999999979
995 498 1 -6.9900000000000002 -3.9600000000000009 1.0999999999999979
996 498 1 -5.9900000000000002 -3.9600000000000009 1.0999999999999979
997 499 1 -6.9900000000000002 -2.9500000000000011 1.0999999999999979
998 499 1 -5.9900000000000002 -2.9500000000000011 1.0999999999999979
999 500 1 -6.9900000000000002 -1.9400000000000013 1.0999999999999979
1000 500 1 -5.9900000000000002 -1.9400000000000013 1.0999999999999979
1001 501 1 -6.9900000000000002 -0.9300000000000015 1.0999999999999979
1002 501 1 -5.9900000000000002 -0.9300000000000015 1.0999999999999979
1003 502 1 -6.9900000000000002 0.0799999999999983 1.0999999999999979
1004 502 1 -5.9900000000000002 0.0799999999999983 1.0999999999999979
1005 503 1 -6.9900000000000002 1.0899999999999981 1.0999999999999979
1006 503 1 -5.9900000000000002 1.0899999999999981 1.0999999999999979
1007 504 1 -6.9900000000000002 2.0999999999999979 1.0999999999999979
1008 504 1 -5.9900000000000002 2.0999999999999979 1.0999999999999979
1009 505 1 -6.9900000000000002 3.1099999999999977 1.0999999999999979
1010 505 1 -5.9900000000000002 3.1099999999999977 1.0999999999999979
1011 506 1 -6.9900000000000002 4.1199999999999974 1.0999999999999979
1012 506 1 -5.9900000000000002 4.1199999999999974 1.0999999999999979
1013 507 1 -6.9900000000000002 5.1299999999999972 1.0999999999999979
1014 507 1 -5.9900000000000002 5.1299999999999972 1.0999999999999979
1015 508 1 -6.9900000000000002 6.1399999999999970 1.0999999999999979
1016 508 1 -5.9900000000000002 6.1399999999999970 1.0999999999999979
1017 509 1 -6.9900000000000002 7.1499999999999986 1.0999999999999979
1018 509 1 -5.9900000000000002 7.1499999999999986 1.0999999999999979
1019 510 1 -6.9900000000000002 8.1600000000000001 1.0999999999999979
1020 510 1 -5.9900000000000002 8.1600000000000001 1.0999999999999979
1021 511 1 -6.9900000000000002 -8.0000000000000000 2.1099999999999977
1022 511 1 -5.9900000000000002 -8.0000000000000000 2.1099999999999977
1023 512 1 -6.9900000000000002 -6.9900000000000002 2.1099999999999977
1024 512 1 -5.9900000000000002 -6.9900000000000002 2.1099999999999977 (../atom.cpp:1039)
Last command: read_data             brownian_L_20.0_rho_0.2.data
