LAMMPS data file via write_data, version 23 Jun 2022, timestep = 10000

24000 atoms
4 atom types

-10 10 xlo xhi
-10 10 ylo yhi
-10 10 zlo zhi

Masses

1 1
2 1
3 1
4 1

Pair Coeffs # dpd

1 25 4.5
2 50 4.5
3 50 4.5
4 50 4.5

Atoms # angle

355 1 1 8.001094055469183 5.577333337948805 -8.488470469693935 0 -1 0
20299 153 2 8.802113690064253 -6.1311586703860765 -9.630433727780057 -1 1 1
22941 1474 2 -9.227664378687733 -8.591186911983 -8.442828412132698 1 0 1
10503 1 1 8.524007161905157 5.21504637400224 -7.980631892262441 -1 -1 0
20836 421 3 0.07595888356795022 8.279627684807782 -7.784618194503196 0 -1 1
15037 1 1 -0.874613047726244 -3.086945976717809 -7.974076255361269 -1 0 1
4010 1 1 -5.382555128781908 9.709057525847912 -9.188541417955463 0 -1 1
11614 1 1 8.181465106443655 5.8808792572153 -9.466580917008846 0 0 1
23946 1976 3 0.5847208437766515 6.964126816510543 -8.534770852516864 0 -1 1
14846 1 1 -2.983168152252861 4.2592041141878925 -9.419563795711595 0 0 0
9466 1 1 7.036213619401736 3.804682950233516 -8.309746708716109 -1 0 -1
9930 1 1 5.945204277711936 8.753742362393675 -8.613859942215244 -1 0 1
13645 1 1 -3.002763387288641 8.990088318045943 -9.821061251715733 1 -2 0
17596 1 1 -2.2831464838538382 -2.5622219586891775 -8.504480232969346 -1 -1 0
12597 1 1 -6.966614793438094 7.529300552508938 -9.964603498497924 1 0 0
17037 1 1 -7.4167027603598354 -3.0482742118869486 -9.58193202892873 1 0 1
22494 1250 3 -7.732694610235551 -6.9074356524498 -9.595591649613537 1 0 1
21057 532 2 4.834021136987987 0.39781234889362577 -9.066993700018887 0 0 1
17796 1 1 9.269145707304919 0.42736087926110944 -9.397156645511323 0 0 2
14508 1 1 6.017023167801948 5.292167757676128 -9.448347647026667 0 -1 0
12959 1 1 -3.1296665729345086 3.4581851717875822 -9.4283262079537 1 0 0
22942 1474 3 -8.265435873500154 -8.531873335612866 -8.177125187721213 1 0 1
21240 623 3 6.347266733301916 -0.6730123784910158 -7.899236018373621 0 0 1
6930 1 1 9.84061140700896 -1.534920226667019 -7.947156920340762 0 -1 0
18891 1 1 6.780203199174608 -6.054770834179152 -8.52069704215766 -1 1 1
19847 1 1 8.21106758186903 -3.7257183582389226 -8.714500451342708 0 0 1
18784 1 1 -7.447478848098211 -8.866764951398263 -8.678248426242444 0 1 1
21462 734 3 5.472560993016356 -4.987345400866086 -9.946639734862979 0 0 1
2775 1 1 -2.5282552669202665 9.502325256483182 -9.662546515020589 0 -2 0
5550 1 1 8.297890223053752 -7.63231982723859 -9.623349188745554 0 0 1
20182 94 3 -9.6532632916648 0.33031340804858655 -8.539916850747291 1 0 1
6629 1 1 0.8034495886540278 8.64230338280651 -9.961545412246414 2 0 -1
14491 1 1 -2.1491794017025003 -3.6458150839463968 -9.613084346763019 -1 0 1
9738 1 1 -8.249123474485026 4.813356426599538 -8.677278661498306 0 1 1
20211 109 2 7.038092499052045 9.93898242800034 -8.65490753449728 0 -1 1
19008 1 1 -8.121445497112292 -4.573799149913936 -7.957821143879254 0 0 1
9501 1 1 -7.235375568992541 -1.8406603894249731 -9.177266705194583 0 0 0
10320 1 1 -2.5067565543209462 2.390280377802736 -9.768044833305513 1 0 1
9999 1 1 9.603901099886942 2.9874272113457536 -9.157580762126958 -1 -1 0
21791 899 2 -7.240155313069483 -8.658593704573342 -9.317989469228223 0 1 1
654 1 1 -2.829394697520171 8.761113605504898 -7.622747630774353 0 -1 0
6660 1 1 5.277985388705891 9.221557641276382 -9.828948938179913 0 0 0
23987 1997 2 -3.6217145118137846 0.9553846843327861 -9.161386954987432 0 0 1
6844 1 1 -0.9066039583423909 -5.664359390742327 -8.994281401648323 -1 0 0
22890 1448 3 -7.8298663086686116 -4.4429329940934865 -9.461446494358341 1 1 1
22113 1060 2 -7.1458725663428115 5.11141091106142 -8.465695624056883 -1 0 1
14649 1 1 -0.7566533968519098 2.767316336590801 -8.205514364233512 0 0 1
13832 1 1 7.42311391354374 7.456531177350497 -8.26230800487337 -1 0 0
23262 1634 3 -6.67738471715135 -6.050581321401792 -8.43980435881845 0 0 1
23842 1924 3 0.03618035752209017 0.667642087397645 -8.148569338870967 1 0 1
10363 1 1 5.778100761877509 -7.514101549027749 -9.658989017492589 0 0 0
13446 1 1 -1.7063268084916337 6.983613885870585 -9.975884491228832 -1 0 1
2060 1 1 -3.9502415697486626 6.117209333433499 -8.390945679063094 -1 -1 1
12622 1 1 -0.9218915006048995 -7.646316386750858 -9.400204855947024 2 1 0
8968 1 1 7.018192473304543 5.68595082304812 -7.549237914684099 0 1 0
1001 1 1 -5.077995111933472 -9.07791558024262 -8.717802732745517 0 1 0
487 1 1 -4.525973779702348 -9.076953250366643 -7.465968803890826 0 1 0
3923 1 1 -0.5159399212584181 -6.240596401279563 -8.840365457566328 1 -1 0
10207 1 1 -5.79328836446768 -7.0865337739943115 -9.14733700580225 -1 -1 1
22478 1242 3 -6.378262012158198 -6.136491066570541 -9.26323957610157 0 0 1
16638 1 1 8.45067432043552 7.498031739720873 -9.422568772046626 0 0 0
13047 1 1 9.35231682364403 5.122478590684163 -9.25600198559276 -1 0 0
17918 1 1 3.522071552091609 -2.871057750981416 -8.247344777424951 1 1 1
16675 1 1 -3.3629272158399086 -9.259174210172647 -7.494074908663046 1 1 1
20029 18 2 2.3766911495964202 8.68986985831297 -8.227922565755035 0 0 1
18925 1 1 3.0802451018243877 2.1722390756067913 -8.336179009143702 0 -1 2
1573 1 1 -4.7925061527034085 8.058411468201118 -9.763853786130914 1 0 0
20326 166 3 2.754611743212868 9.01918090327788 -9.324749790509436 0 -1 1
23611 1809 2 -1.851154370927267 -2.9088669587851825 -9.116140651737211 0 1 1
16042 1 1 8.569761922887846 4.6316587243753 -8.504085374549375 -1 -1 1
21722 864 3 -3.0925920189863207 1.7690980540885044 -8.526124507920546 0 1 1
1604 1 1 1.1326002672781041 9.267598417322018 -9.8568640240377 -1 -1 0
21461 734 2 6.326555027505363 -4.524491768892086 -9.709025121621986 0 0 1
8384 1 1 7.920412420042093 4.637488904536186 -7.863296418543918 0 0 0
7792 1 1 8.56043928927092 3.1778734137431246 -8.903109553568301 0 1 1
7165 1 1 3.068014318502004 -0.5525356785314993 -8.835928913922602 0 1 0
11193 1 1 -1.2117056483222686 -2.552717981248119 -9.114380463976943 -1 1 0
17511 1 1 0.5604853265336355 5.8041262536264355 -9.78750075411466 1 -1 1
9578 1 1 1.2766597875809185 6.299483989154776 -9.352271716996283 -2 0 0
22804 1405 3 4.398143503976717 -2.015570322959613 -8.993326254685725 -1 0 1
9329 1 1 -1.1303049993744254 3.3819147807212757 -8.247170589442286 0 0 0
16217 1 1 9.175699338253386 -5.867244812436667 -8.449916431570571 0 0 1
10622 1 1 -4.462914870037821 3.240482479554982 -8.280384578731955 0 1 1
23431 1719 2 7.908282619669853 -6.354170142509191 -9.677231178063575 0 1 1
12678 1 1 2.2644868541188514 6.746796956685437 -9.261755694987093 -1 -1 1
20101 54 2 0.7975973808991672 8.159092443254261 -9.3408145887598 -1 0 1
5196 1 1 -3.661592532633536 -1.4473946048080482 -9.70659700785563 1 0 0
9517 1 1 6.529934543516391 -5.972580322359097 -9.531072185510743 0 1 0
1425 1 1 9.273455924748957 -3.3821216285622246 -9.537877844777695 0 0 0
1045 1 1 -9.983847611336556 -4.796847474200712 -9.337852158837089 0 0 0
14390 1 1 -9.991120709191195 -2.718959345057678 -7.276597893827226 0 0 1
10434 1 1 -8.824718059356192 0.9681790312721422 -9.41310785336173 1 0 0
12072 1 1 1.2023440363915296 9.616183853878825 -8.982356501147434 1 -1 1
5911 1 1 -3.4595107306651323 4.958884030085258 -9.542089929018866 0 0 0
21552 779 3 7.512419946260658 4.597238649578703 -9.537248861914765 -1 0 1
7115 1 1 -8.681816797015653 4.820243284663208 -9.772182336762613 0 1 0
23825 1916 2 -0.8998697940333358 9.643650548998142 -9.03883217542089 0 0 1
23272 1639 3 -8.00598726924591 9.097025239815608 -9.257540192089325 0 -1 0
10328 1 1 -2.0400951628496413 9.635098411564712 -8.085822548506947 0 -1 1
20234 120 3 -4.06044907045314 5.111987337863619 -9.7906300801832 -1 0 1
19841 1 1 1.5152797360632648 -0.3703392494261889 -8.311537034976812 0 0 1
3702 1 1 0.35507167391216127 -7.152655072154605 -8.28829508412057 0 2 0
5076 1 1 5.30307120743873 -0.9356141713633019 -9.293629515356836 -1 2 1
10614 1 1 -1.977209172004889 9.290577926299164 -9.308749271260359 1 -1 0
3622 1 1 5.977064569404415 -8.34829619913684 -9.790699040557538 0 0 1
21547 777 2 -0.5891935392851975 -8.865726264795233 -8.157550904282223 -1 0 1
9588 1 1 -6.370002481607324 2.196115001305091 -7.204676362757987 0 0 0
5022 1 1 6.221626775790991 8.368924344633717 -9.605368457953201 0 0 0
523 1 1 2.1773481061530098 -7.946355670313084 -9.25800058153559 0 2 0
557 1 1 -2.5552631441355116 -4.296155528876022 -8.981002585981114 1 1 1
11626 1 1 1.5331423111120934 3.00389062204853 -9.543324613869444 1 0 1
4992 1 1 8.806061438590326 -8.732073897418756 -8.121720131444977 -2 0 0
1031 1 1 -2.880963323391174 7.129378581581498 -8.832181210372324 0 -1 0
6288 1 1 -3.97945181867904 -8.312565644185547 -9.65490552687171 1 1 -1
5759 1 1 -3.3838256018001003 -9.821613767537034 -9.784204281601678 2 0 1
10680 1 1 9.71413098093088 -6.033026353335809 -9.208565326724173 0 1 1
14299 1 1 -3.6389746373451626 1.6781336438979328 -7.320941516776293 1 1 0
17545 1 1 7.865815655410644 5.6632328900696685 -9.083519142833433 0 -1 0
21154 580 3 3.6600101231694784 2.0292052301905588 -9.682683248009363 0 0 1
10034 1 1 -3.2674047647032953 0.1399423555875293 -9.706482829690566 1 -1 0
13633 1 1 7.3834123601265125 0.21988170996957085 -8.325096897731814 -1 1 1
1564 1 1 7.782234470446347 0.4077854626169212 -9.290508849802373 0 0 0
5589 1 1 -5.966562905973592 -9.194071566982021 -9.898083562006454 -1 1 0
21550 778 3 5.9372269817847645 -2.6229162219896183 -8.040153372339995 -1 0 1
10751 1 1 -5.970039108465909 -8.152079128553492 -9.310680495918241 1 1 1
9091 1 1 6.995035453511702 -7.395016424563175 -9.48888325355266 -1 -1 1
14424 1 1 6.054133251182966 -1.4960713036798758 -8.516458505542586 0 0 1
13698 1 1 3.620729427977927 -2.3487725037712273 -8.038486582319326 0 0 0
11697 1 1 4.377561723972257 -5.809472095880688 -9.200673324831534 0 1 0
8422 1 1 7.629596623802945 8.622620450563357 -9.596476712296417 0 -1 0
17745 1 1 -8.85620337152512 6.681815741280406 -9.275935069571718 1 1 0
23776 1891 3 9.284279138958619 -4.827613247381941 -9.304390900943957 -2 1 1
7559 1 1 4.298707848925409 6.456444461736876 -8.960927124787633 0 0 1
18023 1 1 6.04701174497507 -4.4651812957006465 -8.101074337282236 0 -1 1
21860 933 3 -0.7161312703732645 -4.088449022414813 -9.087202602081682 0 1 1
13441 1 1 -3.3854001824818143 -0.8619683643780156 -9.622120606103765 1 1 -1
7919 1 1 -9.130815264433018 -3.457527159358044 -9.648918185611045 1 0 0
8630 1 1 -3.9873501459386556 -6.558620180305512 -8.131527070365717 1 1 0
19695 1 1 1.40703361413495 -5.191592083028863 -9.095467191280406 -1 1 1
630 1 1 -5.647520579399607 7.718077485933381 -9.65958592439939 1 0 0
4176 1 1 -8.144206892902941 -9.398004238558986 -9.923393476453295 1 1 0
204 1 1 6.6316016750684215 -7.631290910818982 -8.609985593110526 0 0 0
20120 63 3 2.7309230294214153 0.40052778008243883 -9.060713561774044 -1 1 1
20404 205 3 -2.6941282512533755 2.6725030470574027 -9.270903297320858 0 0 1
23456 1731 3 -4.074291993695665 -1.046073578035343 -9.366456324805839 1 0 1
14805 1 1 -2.488660721410448 -7.630287462820772 -7.850288869913957 1 0 1
14586 1 1 4.284367215758782 2.293106047334806 -9.921606746861924 0 -1 1
23642 1824 3 -9.263905560856225 -9.012614135316433 -9.151110849339453 0 1 1
8998 1 1 -5.641538495023587 -4.017219135257012 -8.017261105546359 1 2 0
16302 1 1 -1.363871912482433 8.695549229406813 -9.17724969661746 0 0 1
264 1 1 -9.885547117464066 2.168669204381421 -9.565229519876048 1 -1 0
9894 1 1 5.028666910874324 8.151408624774401 -8.77707949434592 -1 1 1
20054 30 3 9.51907801099334 -9.241162375059325 -8.270990217731779 -1 1 1
11793 1 1 8.922527021286912 -3.047565119509012 -8.254490510161274 0 0 1
4353 1 1 7.125269554366292 9.435940348854261 -9.633761161400143 -1 0 0
9399 1 1 4.962984107268621 -3.6950847033738112 -8.965912226798105 -3 0 1
20030 18 3 2.8973578065334293 7.8484173257097956 -8.083479262934377 0 0 1
22495 1251 2 2.89319439970699 -7.9059794841635105 -8.485524219621736 0 0 1
9736 1 1 -0.8687680775516 -1.345865530260164 -8.667289205377116 0 0 0
18444 1 1 4.0659212840501295 9.459732085320043 -8.647769498984664 1 -1 2
8895 1 1 -8.625226196216627 -9.987708668375259 -7.456343364133634 0 1 1
18333 1 1 -9.383058999666522 3.9669695984929616 -7.402453652821846 0 0 0
2741 1 1 3.947317741240908 -5.82025094087854 -9.912906183992197 -2 0 0
15608 1 1 4.710465321233707 2.800906285289091 -9.079332262355642 0 0 -1
9669 1 1 3.7720236473585707 -1.3683570657259978 -7.598998813879474 -1 0 0
20178 92 3 8.230609531196627 7.363704790616589 -9.763774117798599 -1 0 1
20793 400 2 0.39964799495087666 -9.455503257972314 -8.553978411410746 0 0 1
17401 1 1 4.374590775446261 -5.646393302623853 -7.575295512849955 -2 0 2
20273 140 2 -9.044443727531126 5.921903775688624 -8.314427938282835 1 0 0
3423 1 1 -6.32685542852328 7.647763716845505 -9.953629036975546 1 0 0
16643 1 1 5.093284962232686 1.9802769441265422 -9.632567286670765 -1 -1 -1
21719 863 2 6.97742701606865 -2.5572473328364578 -9.193624545672968 -1 1 1
21914 960 3 2.714957185600019 4.235628332441334 -9.62999831663192 0 0 1
9820 1 1 -4.653324491302066 -0.39752395930191875 -9.778011983154604 1 1 1
19384 1 1 5.1717377289445 -2.7015753879592213 -7.492376098843237 -1 0 0
23180 1593 3 -8.361888203591725 9.782221854387048 -8.84089189322559 1 -1 0
16904 1 1 7.491546879269923 6.937191400636972 -9.888823083233534 0 0 0
832 1 1 -1.0401550730662827 -0.4644466925620378 -8.579931980666537 0 0 0
23274 1640 3 8.883536163299272 -7.895150630137962 -8.027623708768639 -1 0 1
22784 1395 3 -0.15569735853295222 7.301916843732157 -9.94613692415939 0 0 1
10657 1 1 -2.7269116967651543 3.699252565771461 -8.491610215089539 0 0 1
16755 1 1 -1.4364584998997085 4.449900980301296 -7.853446396289128 0 0 1
1866 1 1 1.1512512148601073 -3.3145897348929 -9.515807294711072 -1 1 0
22395 1201 2 -2.3487470991506116 9.015216461671848 -7.781590794447724 -1 -1 1
599 1 1 -8.974006419554938 -0.5279853410809225 -8.825875487292318 1 0 0
21950 978 3 1.0218720141970943 6.862537074447072 -9.509869335101584 0 -1 1
8754 1 1 -0.6015280483965265 -5.995186968231689 -9.460500969946825 0 1 0
15143 1 1 -7.024890396509152 1.910337087489006 -9.565569655450194 1 -1 0
8598 1 1 -6.427077877412899 -8.973135467325822 -8.685315228043994 0 1 1
10396 1 1 3.057960298996568 8.55232437274548 -9.74682315998539 -1 0 0
6279 1 1 -2.5202666763785624 1.5642063018395325 -9.948520510179206 -1 0 0
22796 1401 3 -1.8327632602249244 -6.652182617831763 -8.897353751801033 0 0 1
10658 1 1 9.06567915051891 1.0086447906424483 -8.809925551625 -1 0 0
7733 1 1 5.596130255906018 -0.5054494383874437 -7.533919093007061 -1 1 1
20995 501 2 -8.455720806348603 -5.784333965172614 -9.128132252097803 0 0 1
14766 1 1 4.254837469655295 -4.141195715282826 -8.804246563219323 0 -1 1
7208 1 1 -2.8399135559002886 -2.341166439380625 -9.004053211484875 1 -1 1
20189 98 2 0.5720093479495313 -1.6314210167868264 -8.298175645663186 0 0 1
4033 1 1 -5.9858348255105005 -7.827705617724921 -9.628619622108774 0 1 0
22889 1448 2 -8.622130628206046 -4.871734194585113 -9.02734192349456 1 1 1
11343 1 1 -6.066120643419156 -3.756329591868349 -8.81155116508708 0 0 -1
3213 1 1 8.156352169346057 2.4284437840777295 -9.565283829123112 -1 0 0
20325 166 2 3.7077634457138684 8.870903915803522 -9.061091361846564 0 -1 1
16100 1 1 -7.978733557463526 -2.3268998817819266 -9.42959859541227 1 0 1
18398 1 1 9.715512447327393 0.4134949364179008 -8.777574898201294 -1 0 1
22066 1036 3 -4.308222295063557 4.455280400365379 -9.713033169933434 0 0 1
1960 1 1 0.7390837291329275 -0.07802871007997769 -9.31898332752279 0 0 0
19361 1 1 9.07206910114428 9.08919779420204 -8.140389511898368 0 0 1
13783 1 1 1.619198025619002 -3.8141422792326423 -9.959865258054375 -1 0 0
11039 1 1 0.7215921842044365 -1.0264930472568239 -9.672058572214786 1 -1 2
22423 1215 2 9.720572864845058 9.370444707234247 -9.139030763329192 -1 0 1
12195 1 1 1.4876405114980398 -0.9391756890725073 -9.07069224630166 0 0 0
15582 1 1 -9.659548317268486 -2.056592895980279 -8.534846128897343 0 0 1
12177 1 1 -0.27805956260546344 -3.4375874059020384 -9.00587230296171 0 0 0
4930 1 1 -1.0451476222971412 -6.403129953898491 -9.675604524745149 0 0 0
14055 1 1 -4.999811293784902 -0.03407748113445276 -9.850574680428995 1 0 1
12692 1 1 -3.003466847080822 0.6355379573944064 -9.914542645521268 0 0 0
11972 1 1 4.540328182185498 -9.25354975521923 -8.776178695236942 -2 0 1
11421 1 1 8.457610186959638 4.333244512219628 -8.74519836437367 -1 0 1
23056 1531 3 -9.565602591448927 -2.1171580640783922 -9.562845506107772 0 0 0
22887 1447 2 6.868350492008488 -4.737426630058528 -9.398028421136086 0 0 1
9509 1 1 0.8150444822277929 7.34746624327262 -7.918046336768543 0 -1 0
3314 1 1 9.351440220175604 -2.8658717977515273 -9.668178600852652 -1 0 1
4741 1 1 -7.844216499553976 -2.531036283379602 -9.760874613644694 0 0 1
11045 1 1 7.558606796756783 3.7472000021096616 -9.333712532278529 -1 0 0
18535 1 1 -1.9029231090366312 2.68278251060708 -8.589877231887273 0 1 0
19119 1 1 -0.18186855951436662 6.091929473649614 -9.853036542582194 0 -1 1
21996 1001 3 0.3877309430726877 -0.16041106635871216 -8.106746506957503 1 0 1
61 1 1 2.554410409465931 1.7379881660778604 -8.91969869077303 -1 -1 0
8928 1 1 -2.563972341940964 -4.1471524987956245 -7.417850856460726 0 2 0
5458 1 1 0.5942874429503338 -6.19615182908482 -8.305183976662255 1 0 0
16284 1 1 3.560418481968117 9.135093190619424 -8.148030413640681 0 -1 1
23641 1824 2 -9.111631024221078 -9.595546363850236 -9.949235202074767 0 1 1
9377 1 1 -5.007183373279073 9.022562808048468 -7.784078453832575 1 -1 0
20775 391 2 -9.57105736796645 -7.85289854439328 -8.980883736968673 0 0 1
14049 1 1 0.30943054028835076 -7.478783532422034 -9.618352452611084 0 2 1
22477 1242 2 -6.409066448522567 -6.972503802608469 -9.811084254712808 0 0 1
5678 1 1 -9.20522822895988 5.017976310756474 -9.91571165828665 0 0 0
23455 1731 2 -5.072451549232609 -1.0041855223584761 -9.410307122767843 1 0 1
7382 1 1 9.695908948989237 4.224285744034314 -9.114130165267197 0 -1 1
11558 1 1 -0.3266876834574156 -9.810774712684271 -8.178980975083034 0 2 1
6443 1 1 -2.1781443289522975 -2.477686341348525 -7.470828279552375 0 0 1
114 1 1 -3.4303977275354263 5.645218108281921 -9.733313129312418 0 -1 0
18993 1 1 2.492549381693214 4.524862373662267 -7.561215970389486 0 0 1
14502 1 1 3.578289610206746 6.517850123881701 -8.598840172951848 0 -1 0
15370 1 1 3.415191288932521 -9.216309355554758 -7.594833523956558 -1 0 1
23743 1875 2 4.98717951619487 5.161024882575585 -8.13108103959523 0 0 0
22086 1046 3 -4.4420570787975 -6.1660739996095755 -9.709831641791611 0 0 0
14662 1 1 -8.074259332732334 7.7301960662264 -9.298649379226926 0 -1 1
12313 1 1 -9.040181582119457 2.0789003592640714 -8.12188385086564 0 0 1
21048 527 3 6.703262667022841 5.3072176195766945 -9.902861893510169 0 0 1
21721 864 2 -3.7368434845801435 2.3516229251967116 -9.021709842268304 0 1 1
9201 1 1 -3.8963770387508814 -2.26351178301926 -8.337806073484225 0 -1 1
21077 542 2 2.5192236068662335 -7.262205451058682 -8.793680853032246 -2 0 1
23261 1634 2 -5.838036826370493 -6.502933034395632 -8.138352793897539 0 0 1
12770 1 1 -5.845787628614915 2.697933088050617 -8.627962891416443 0 0 0
9642 1 1 -9.167665476425036 0.7821787017469233 -8.956303556425864 0 0 1
11157 1 1 3.3813094754487762 4.221484501401423 -8.894681318942304 0 0 0
10694 1 1 2.962221936857696 -7.561302745283509 -9.759570138601775 0 2 1
19097 1 1 -3.3502070091347846 5.86559547518802 -8.582789843265898 0 -1 1
5646 1 1 8.301135892156994 -6.553611557705716 -8.105255833606448 -2 0 0
13589 1 1 2.9907191935087876 -8.990117706636338 -9.701973063866037 -1 -1 0
22797 1402 2 -5.1215099606439685 6.384283799652838 -8.26626049699237 1 -1 1
23254 1630 3 7.2141478475075935 7.423481625428663 -9.142231623013425 0 0 1
5068 1 1 3.9856689739273308 -0.11285289592030452 -8.179096232154835 0 0 -1
18523 1 1 -7.860938743432834 9.942346634440579 -9.064196128981557 0 0 1
6356 1 1 4.420769078344462 -8.150732180052628 -9.432925299574006 -1 0 0
14026 1 1 1.8625971528830045 -1.7551004279248594 -9.65381016212994 -1 1 1
2840 1 1 -8.21035443959384 -5.985483779924708 -8.656936927627362 1 -1 -1
20549 278 2 3.835719539747537 -7.456562872841436 -8.825416113103074 0 0 1
7435 1 1 -1.1798453441120536 -7.7327515756393685 -9.627057818216999 0 1 1
8856 1 1 -5.554983153336158 2.0424543433482896 -8.87059697724749 0 1 1
6166 1 1 -4.140945688737309 -7.026239057086552 -8.245547502383474 1 0 0
8737 1 1 5.163008206654723 3.0128707542714115 -7.985076329845464 -1 0 1
9102 1 1 3.058269132746725 -3.3921162322654554 -9.771887155251358 -1 -1 1
23107 1557 2 -3.7637151754322775 -4.124911268503682 -8.6380745158619 0 0 1
16492 1 1 8.637725311789103 1.574014407470851 -8.66601187065635 0 -1 1
9583 1 1 1.1101888620772575 -6.033229244670553 -9.36434234596551 0 0 1
12167 1 1 8.24529864921312 -8.506477079705608 -9.926649528225214 0 1 1
21641 824 2 0.1363659178659992 -6.572946513217187 -7.465125210032609 0 0 1
21880 943 3 3.209630764210666 8.765666210007675 -7.612630998974952 0 0 1
20368 187 3 -6.461651459113279 2.468374293215704 -8.978329656401044 1 1 0
18739 1 1 8.296112926199083 -2.8376617838346267 -9.489923550503814 0 1 2
8570 1 1 -3.89090610595554 4.582801040323051 -9.004290316947506 1 -1 1
21548 777 3 -1.49166089137737 -9.295018756515562 -8.122045482720251 -1 0 1
9951 1 1 8.017917978078678 6.819444038764165 -8.29821667731255 -1 -1 1
9030 1 1 6.439378382983963 -4.866697708913007 -8.168530112429021 0 -1 1
375 1 1 2.576736942667713 5.068444861599082 -9.84751601571128 0 0 0
3177 1 1 4.437390462273243 -0.38710313596755225 -9.96232880314721 0 0 0
19299 1 1 0.4597634347804622 -3.410130428571182 -8.92573655158137 1 0 0
20710 358 3 6.644036025144969 -3.2586269734944713 -8.78168255062063 -1 0 1
22470 1238 3 -7.377866146099753 -5.951993044557182 -8.62646293456504 0 0 1
11722 1 1 -0.8509324644858821 -0.7775903408737245 -9.46657539861663 1 0 -1
9651 1 1 -7.336030458564355 9.361214374774667 -9.359115459601398 1 0 0
13112 1 1 -0.18216175651519198 -0.8609641310210949 -9.738571770457138 -1 -1 1
12805 1 1 7.8998919298481205 -1.7171549324915942 -9.29343754574071 0 -1 1
19610 1 1 -9.323427338969063 5.239677461203699 -9.048803242815245 0 0 0
4798 1 1 -2.41092344515866 8.157326787494117 -8.249348043464545 0 -2 0
21879 943 2 3.3334995487015577 8.352583885176953 -8.514861300583801 0 0 1
6777 1 1 6.1260020681743645 2.0383990768730595 -8.58874807568594 0 0 0
15636 1 1 -3.21626270112838 8.512137487657832 -8.64750910723986 0 -1 0
19129 1 1 0.02165718340258295 -1.5986397093803995 -9.057001398908533 0 0 1
15567 1 1 3.3900505589007097 -0.07425993547820553 -9.507087243375981 0 -1 0
4481 1 1 -0.9065972280835556 9.773015387787328 -8.276716707986632 0 0 0
20093 50 2 5.475959629746362 5.825562973264184 -9.997952854360092 0 0 1
22341 1174 2 1.2692348827131144 4.232056694951965 -9.421399566993912 1 0 0
12943 1 1 9.377121583142594 -8.211395751324838 -7.431797734658671 -2 0 1
3717 1 1 -4.108159189958782 2.6694920347340108 -8.99055395950251 1 0 0
8248 1 1 -5.934781452945072 4.908214301582141 -9.49631345404159 0 -1 0
11082 1 1 -6.276990303612137 -2.6193341070474463 -9.684387658272554 -1 0 0
19414 1 1 2.0868761980216424 8.25582789369534 -9.61674713306143 -1 0 1
12110 1 1 9.029880647068545 -9.136279385286272 -9.253221723430643 0 0 1
16247 1 1 1.75524161393532 3.783782450203633 -7.316201987069599 0 0 1
21940 973 3 2.7086569852079543 -7.995708089346904 -9.52661317798438 0 1 2
20207 107 2 -5.561043849323158 5.485921984050555 -9.58346133638506 0 0 1
5239 1 1 1.8832613080541674 -1.194496127533151 -8.41660815016629 0 0 0
5868 1 1 -8.717296597928113 9.839488075705752 -9.360139295401709 1 -1 0
21946 976 3 -4.366155323754345 -8.536039580629073 -8.633162996508275 1 0 1
13439 1 1 -7.139371684740221 -9.613759172518446 -9.375944809635303 0 0 1
6610 1 1 -0.5276062825486859 -2.5533782170665327 -8.880949670742163 0 0 1
21945 976 2 -5.16172969097599 -8.292839206588688 -9.188063892422576 1 0 1
14617 1 1 1.1219274969730233 -6.538845569427035 -7.8285495009166555 1 0 0
9434 1 1 9.345868122215382 4.98867261943866 -8.540901213033258 0 -1 -1
5209 1 1 -5.802836341518349 -5.337219472436692 -9.993879120418232 1 0 1
19475 1 1 8.315198898970447 9.31151885441143 -8.106660790173624 -1 1 1
9529 1 1 -2.9846398554964657 0.967554119836718 -8.138276485914044 1 1 0
17118 1 1 6.230181248900754 -6.051989236878251 -8.664497406725785 0 0 1
5750 1 1 7.120215214412294 -5.013540173360375 -7.2801323361514445 -1 -1 0
1922 1 1 -2.8474296033780537 4.944164012630271 -8.800457412397506 1 0 0
17727 1 1 -9.135658737056746 -7.988309008388357 -7.690078318028228 1 1 1
14244 1 1 -5.527915563964284 -6.891288739678288 -9.866590082754671 1 1 1
23098 1552 3 -8.719035012477438 6.314195834783444 -9.92200295538099 1 0 1
11515 1 1 -6.802468804325675 -2.4902714225304656 -9.008013677183826 0 1 0
19492 1 1 -8.039297958402749 -7.552101718677388 -9.421707201800501 2 2 1
1384 1 1 -0.5341244135288584 3.047428246140199 -8.635109580188423 -1 -1 -1
8910 1 1 7.813323171270476 -9.37633426837297 -9.594116156662535 0 1 0
14517 1 1 0.6502677833523585 -5.346079083725946 -9.692369560517001 0 -1 0
2260 1 1 5.185565048415647 -4.4803345242601305 -9.407956521174823 -1 0 0
9218 1 1 4.020689466411473 -3.7795907615699207 -7.8316506502962655 0 1 1
21954 980 3 -9.766381499536699 -0.9951454291651054 -8.424678104686043 0 0 1
3335 1 1 4.664259160277066 -8.839344265634692 -9.856148932526736 -1 0 0
14206 1 1 -7.574568654715902 2.4653159546374854 -9.919311156691009 0 0 1
19836 1 1 7.334108018705373 5.135614944121338 -8.143682240837974 -1 -1 0
6596 1 1 -1.729860191244069 -9.039634993411479 -9.034453197088995 1 0 0
23207 1607 2 -4.212116876458594 1.9036328011848607 -9.259091331578448 0 0 1
4435 1 1 -5.152606483751405 2.448160866573618 -9.626065018019757 1 0 0
12847 1 1 4.469547236483576 -2.970538859527395 -8.88940124162747 -1 0 1
19525 1 1 1.6710421915466107 -2.9857207992998425 -9.851968724523653 0 0 1
17298 1 1 -1.5224204900668339 -8.277235089387197 -8.040080643246261 0 0 1
17576 1 1 6.498087138681329 -7.698607768605617 -9.34139496727031 0 0 0
3205 1 1 -0.415249713310867 8.256362493678617 -8.834502183634886 0 -1 0
18680 1 1 9.407775465783692 -9.643973777356107 -9.670819556399302 1 1 1
6020 1 1 3.252768469300448 2.6856593456295688 -7.900648519559983 1 -1 0
20776 391 3 9.773242773854712 -8.4718232024459 -9.413307098547 -1 0 1
17946 1 1 -6.990117890470756 -8.280163662831315 -9.595656326256194 0 1 0
16516 1 1 1.064929642900983 6.443071733970142 -8.024059487253421 1 -1 0
4921 1 1 1.8225400796022182 8.720625151216485 -8.663907297839708 -1 -1 0
11875 1 1 5.787609916391335 -5.396227714735996 -8.379586951280418 0 0 0
5841 1 1 2.9385742172938727 6.947499896660978 -8.10920173687564 0 0 0
3085 1 1 -9.58282401986613 9.758305745570043 -9.865105599448539 0 -1 1
17933 1 1 -9.056886709921727 2.360438849089737 -8.673142794242066 0 0 1
11360 1 1 -7.8584303456458775 -3.0231125192992736 -8.372947758596831 2 0 1
14077 1 1 2.158106592246382 7.125766530174519 -7.760230823328648 0 0 1
20115 61 2 -2.9349184854566026 6.337784551639529 -9.69346858713549 0 0 1
9721 1 1 -9.66183564772291 -5.953284076891685 -8.671301594772332 0 1 0
1023 1 1 9.498039607642562 -0.1770570268182053 -9.595877645601115 -1 0 0
22424 1215 3 9.63574354445029 -9.684551595469285 -8.823163705063585 -1 1 1
8192 1 1 0.5091353717922308 2.1864393514205274 -9.399852621250544 0 -2 0
17330 1 1 -3.9072104266460785 6.599787469067711 -8.767565704516924 0 0 2
20367 187 2 -6.041799994481032 3.215884469903159 -9.493065786272307 1 1 0
23722 1864 3 -5.193803735704207 6.677551073642404 -7.607649273656825 1 0 1
20053 30 2 9.114461553491115 9.90554240497601 -7.942093896828358 -1 0 1
22955 1481 2 -4.523166058840609 5.955054857103482 -7.815614783312517 0 -1 0
15882 1 1 -3.9722747865479984 -4.967177785379533 -8.240119190347809 0 1 0
9881 1 1 7.729016199050512 1.9227257119796484 -8.88870978392981 -1 0 1
1526 1 1 5.507665082529727 7.931796208672537 -9.420936524605807 0 0 1
1747 1 1 -7.985486662013622 6.881425130991267 -8.308681217371873 0 1 1
14449 1 1 -1.659400340083191 2.950749505926656 -7.6959744038828575 1 -1 1
1277 1 1 -1.815820120382691 0.5566215612210971 -8.802837269204346 1 0 1
10579 1 1 1.2807388583803119 1.5585294704170103 -8.952389553066851 0 0 0
9164 1 1 1.4600321845308768 -1.8585731747771757 -8.153199380488452 0 -1 0
23271 1639 2 -8.811516218453637 9.35458304242293 -8.72388572494379 0 -1 0
7436 1 1 -0.6302945313807367 -5.790062218115094 -7.862756098569922 -2 0 0
21043 525 2 8.798200156916167 2.834899578909474 -9.595615656623961 -1 0 1
2014 1 1 9.378863029120849 6.070240980959928 -9.297387136283863 -2 -1 0
12268 1 1 -0.1098447949056593 7.826186001077014 -9.90658463799565 0 -1 1
6043 1 1 -1.7204899219445595 0.4143141223308544 -7.930494352858995 0 0 -1
14108 1 1 0.8166483214393164 -4.830951279978398 -7.62651514130416 1 1 1
7367 1 1 -9.764458626578483 -2.7800049877689883 -8.857657676862347 2 0 0
16011 1 1 1.1458389032917025 -5.0037027641194225 -7.754849590518482 0 0 0
14479 1 1 -4.576438058981306 -7.264533832390909 -7.6371700813392005 0 -1 1
9405 1 1 -9.503163108612823 1.1115747509015328 -9.033246368539247 1 -1 1
3391 1 1 -1.8502091372034566 -4.625189256591958 -8.109603317018703 -1 0 -1
18644 1 1 -7.825477696908342 0.7933280698370773 -9.6345712333979 1 -1 1
5946 1 1 -7.115150790292251 3.471034164473521 -7.749128081495393 1 0 0
10491 1 1 6.754549763706002 2.0638637652726595 -9.342487830895418 -1 0 0
21554 780 3 6.006529410029607 -5.078236957289596 -8.647331704143463 -1 0 1
23515 1761 2 -0.16719135671852364 -8.858399808137019 -9.418482695669242 0 2 1
22469 1238 2 -8.173783571024515 -6.52972313327249 -8.807414301772202 0 0 1
14434 1 1 0.10453796597993345 7.997210359844124 -8.779718703306491 0 -1 1
8543 1 1 4.2581658064502985 1.1798631398002966 -8.50178245022598 1 1 0
20080 43 3 5.635444780068701 0.15095709360284898 -8.238108687045022 0 0 1
14947 1 1 9.713164745207882 1.3170741524625122 -8.598463471794757 -1 0 1
23356 1681 3 -1.2492337128454782 -8.045549140225015 -8.841882164362275 0 0 1
113 1 1 -5.327855368625114 -9.592033863240236 -9.52497181612076 1 1 1
2503 1 1 9.780574300367574 7.526699925345142 -8.203608162434891 -1 1 0
23744 1875 3 5.8670640540772245 4.9270781472731695 -8.544689701299621 0 0 0