ITEM: TIMESTEP
0
ITEM: NUMBER OF ATOMS
4002
ITEM: BOX BOUNDS pp pp pp
-1.0000000000000000e+01 1.0000000000000000e+01
-1.0000000000000000e+01 1.0000000000000000e+01
-1.0000000000000000e+01 1.0000000000000000e+01
ITEM: ATOMS id xu yu zu vx vy vz
21501 10.1263 -6.7381 9.62629 -0.825214 0.188069 0.364078
21558 -8.49689 -6.7381 9.62629 0.346969 -0.290641 0.226757
21560 -9.12629 -6.7381 9.62629 0.717921 0.276818 0.172533
21561 10.1263 -7.36749 9.62629 0.675296 -0.347703 0.374855
21618 -8.49689 -7.36749 9.62629 1.2185 0.911663 0.0212605
21620 -9.12629 -7.36749 9.62629 -0.882328 -0.492967 1.23061
21621 10.1263 -7.99689 9.62629 -1.08089 -0.336658 -1.66825
21678 -8.49689 -7.99689 9.62629 -0.0311892 -0.490162 -0.0214223
21680 -9.12629 -7.99689 9.62629 -0.359236 -0.59971 1.40836
23181 10.1263 -6.7381 8.99689 -0.495827 -1.44639 -0.0405391
23238 -8.49689 -6.7381 8.99689 0.47025 -0.536871 1.43556
23240 -9.12629 -6.7381 8.99689 0.0214827 -0.539677 -1.55102
23241 10.1263 -7.36749 8.99689 -0.925181 0.528639 0.847208
23298 -8.49689 -7.36749 8.99689 1.67934 -1.80667 0.389009
23300 -9.12629 -7.36749 8.99689 0.24076 -0.776874 -2.17895
23301 10.1263 -7.99689 8.99689 -0.583972 0.711348 -0.685805
23358 -8.49689 -7.99689 8.99689 -0.717961 0.788786 0.639738
23360 -9.12629 -7.99689 8.99689 0.0832717 2.40871 1.03538
21554 -7.2381 -6.7381 9.62629 0.576837 -1.35128 1.73463
21556 -7.86749 -6.7381 9.62629 -0.883789 0.698878 -0.472093
21557 -7.49689 -6.7381 9.62629 0.346969 0.648895 -1.22371
21559 -8.12629 -6.7381 9.62629 0.717921 -1.49456 -0.199053
21614 -7.2381 -7.36749 9.62629 0.952651 -0.264684 1.90042
21616 -7.86749 -7.36749 9.62629 -0.616292 -0.474339 -1.21457
21617 -7.49689 -7.36749 9.62629 1.2185 0.371042 -0.59979
21619 -8.12629 -7.36749 9.62629 -0.882328 -0.604666 0.300713
21674 -7.2381 -7.99689 9.62629 -0.202603 0.600909 -0.411659
21676 -7.86749 -7.99689 9.62629 -0.60702 0.597703 0.331901
21677 -7.49689 -7.99689 9.62629 -0.0311892 -0.364899 -2.15036
21679 -8.12629 -7.99689 9.62629 -0.359236 0.333049 1.38354
23234 -7.2381 -6.7381 8.99689 -0.752076 0.134308 -0.917738
23236 -7.86749 -6.7381 8.99689 -1.49801 -0.317936 0.0705695
23237 -7.49689 -6.7381 8.99689 0.47025 1.10862 -1.01833
23239 -8.12629 -6.7381 8.99689 0.0214827 -0.575612 -2.17976
23294 -7.2381 -7.36749 8.99689 -0.598728 -0.231205 1.0424
23296 -7.86749 -7.36749 8.99689 -1.04826 -1.11675 0.752495
23297 -7.49689 -7.36749 8.99689 1.67934 -0.141391 0.321984
23299 -8.12629 -7.36749 8.99689 0.24076 0.409744 0.312883
23354 -7.2381 -7.99689 8.99689 1.26494 0.604695 0.92264
23356 -7.86749 -7.99689 8.99689 -0.0957988 0.0814111 0.656986
23357 -7.49689 -7.99689 8.99689 -0.717961 0.592557 -0.537548
23359 -8.12629 -7.99689 8.99689 0.0832717 -0.546389 0.396735
21550 -5.9793 -6.7381 9.62629 -0.444396 0.332545 0.530337
21551 -5.6087 -6.7381 9.62629 -0.636836 -0.0536621 -1.65511
21552 -6.6087 -6.7381 9.62629 -0.636836 1.66401 -0.0178496
21553 -6.2381 -6.7381 9.62629 0.576837 -1.88585 0.212266
21555 -6.86749 -6.7381 9.62629 -0.883789 -0.384127 -0.18944
21610 -5.9793 -7.36749 9.62629 0.155593 0.959764 -0.649759
21611 -5.6087 -7.36749 9.62629 -0.288434 3.23254 -1.77704
21612 -6.6087 -7.36749 9.62629 -0.288434 0.190199 0.4073
21613 -6.2381 -7.36749 9.62629 0.952651 -2.10525 0.433757
21615 -6.86749 -7.36749 9.62629 -0.616292 -0.0320198 1.35656
21670 -5.9793 -7.99689 9.62629 -0.0131554 0.588381 -2.14735
21671 -5.6087 -7.99689 9.62629 -2.19089 0.0640917 0.925612
21672 -6.6087 -7.99689 9.62629 -2.19089 0.520257 0.905197
21673 -6.2381 -7.99689 9.62629 -0.202603 0.820978 2.58169
21675 -6.86749 -7.99689 9.62629 -0.60702 0.535499 0.66141
23230 -5.9793 -6.7381 8.99689 -1.41943 0.227352 1.46652
23231 -5.6087 -6.7381 8.99689 0.618352 0.455358 0.664173
23232 -6.6087 -6.7381 8.99689 0.618352 0.140373 0.501991
23233 -6.2381 -6.7381 8.99689 -0.752076 1.03403 -0.300858
23235 -6.86749 -6.7381 8.99689 -1.49801 -1.11553 -1.12454
23290 -5.9793 -7.36749 8.99689 0.558567 -1.31454 -0.351138
23291 -5.6087 -7.36749 8.99689 -0.286811 0.345169 -0.811251
23292 -6.6087 -7.36749 8.99689 -0.286811 0.31597 1.1374
23293 -6.2381 -7.36749 8.99689 -0.598728 -0.124433 -0.424923
23295 -6.86749 -7.36749 8.99689 -1.04826 1.50317 -0.477152
23350 -5.9793 -7.99689 8.99689 0.972037 -0.754527 0.273924
23351 -5.6087 -7.99689 8.99689 -0.504136 1.07685 1.62179
23352 -6.6087 -7.99689 8.99689 -0.504136 1.84902 1.38779
23353 -6.2381 -7.99689 8.99689 1.26494 0.814639 1.35773
23355 -6.86749 -7.99689 8.99689 -0.0957988 -1.84564 -1.17275
21544 -4.0911 -6.7381 9.62629 -0.583988 -0.24829 -0.381641
21546 -4.7205 -6.7381 9.62629 0.881303 -0.456793 -1.02065
21547 -4.3499 -6.7381 9.62629 -1.17841 0.428217 -1.08973
21548 -5.3499 -6.7381 9.62629 -1.17841 -0.732663 -0.74794
21549 -4.9793 -6.7381 9.62629 -0.444396 0.03566 -0.0796978
21604 -4.0911 -7.36749 9.62629 0.772647 1.1794 -0.265654
21606 -4.7205 -7.36749 9.62629 -0.937659 0.869325 0.799545
21607 -4.3499 -7.36749 9.62629 0.134084 -0.445511 0.0201415
21608 -5.3499 -7.36749 9.62629 0.134084 -1.33214 -1.00252
21609 -4.9793 -7.36749 9.62629 0.155593 0.102168 1.48853
21664 -4.0911 -7.99689 9.62629 -0.141249 1.27876 -1.36793
21666 -4.7205 -7.99689 9.62629 0.519045 0.473705 -0.966228
21667 -4.3499 -7.99689 9.62629 0.0173393 -1.25792 -0.455259
21668 -5.3499 -7.99689 9.62629 0.0173393 -0.442353 0.0197351
21669 -4.9793 -7.99689 9.62629 -0.0131554 -0.198708 -1.6096
23224 -4.0911 -6.7381 8.99689 -0.963813 1.39826 2.34233
23226 -4.7205 -6.7381 8.99689 1.31896 -0.267424 -0.916278
23227 -4.3499 -6.7381 8.99689 0.0604503 0.824654 0.536665
23228 -5.3499 -6.7381 8.99689 0.0604503 0.00569803 -0.462398
23229 -4.9793 -6.7381 8.99689 -1.41943 -1.18677 -1.03332
23284 -4.0911 -7.36749 8.99689 0.698472 -0.00111981 -0.30761
23286 -4.7205 -7.36749 8.99689 0.611433 -0.874689 -1.04981
23287 -4.3499 -7.36749 8.99689 0.425745 -0.251554 0.0536095
23288 -5.3499 -7.36749 8.99689 0.425745 0.543441 0.945373
23289 -4.9793 -7.36749 8.99689 0.558567 0.98981 1.74367
23344 -4.0911 -7.99689 8.99689 -0.457002 1.768 1.38688
23346 -4.7205 -7.99689 8.99689 -0.289425 1.36068 0.0994418
23347 -4.3499 -7.99689 8.99689 -0.290136 -0.778352 -1.08348
23348 -5.3499 -7.99689 8.99689 -0.290136 -0.664611 0.361448
23349 -4.9793 -7.99689 8.99689 0.972037 -0.121469 0.597374
21540 -2.8323 -6.7381 9.62629 -0.652153 0.648005 -1.14978
21541 -2.4617 -6.7381 9.62629 0.251231 0.83348 1.41195
21542 -3.4617 -6.7381 9.62629 0.251231 0.441071 0.556969
21543 -3.0911 -6.7381 9.62629 -0.583988 -0.399158 1.05778
21545 -3.7205 -6.7381 9.62629 0.881303 0.0251625 0.149401
21600 -2.8323 -7.36749 9.62629 -0.6811 0.888329 1.75199
21601 -2.4617 -7.36749 9.62629 0.114512 0.765215 -0.996006
21602 -3.4617 -7.36749 9.62629 0.114512 0.340689 -1.72337
21603 -3.0911 -7.36749 9.62629 0.772647 -0.565303 1.43945
21605 -3.7205 -7.36749 9.62629 -0.937659 0.537357 -0.670479
21660 -2.8323 -7.99689 9.62629 -0.662506 -1.03157 -1.02667
21661 -2.4617 -7.99689 9.62629 -0.43617 0.863012 0.389015
21662 -3.4617 -7.99689 9.62629 -0.43617 -1.30959 0.678119
21663 -3.0911 -7.99689 9.62629 -0.141249 0.779578 -1.37457
21665 -3.7205 -7.99689 9.62629 0.519045 0.350008 -0.815887
23220 -2.8323 -6.7381 8.99689 0.200086 -1.74811 -0.841968
23221 -2.4617 -6.7381 8.99689 0.255263 -1.09357 -0.518283
23222 -3.4617 -6.7381 8.99689 0.255263 0.217524 -0.725546
23223 -3.0911 -6.7381 8.99689 -0.963813 -0.0524587 -1.60681
23225 -3.7205 -6.7381 8.99689 1.31896 0.451289 -1.78551
23280 -2.8323 -7.36749 8.99689 0.505891 0.320709 -0.599336
23281 -2.4617 -7.36749 8.99689 0.92335 -0.0905019 1.15807
23282 -3.4617 -7.36749 8.99689 0.92335 0.0991964 -0.28908
23283 -3.0911 -7.36749 8.99689 0.698472 0.106051 -0.380582
23285 -3.7205 -7.36749 8.99689 0.611433 -0.740769 -0.53087
23340 -2.8323 -7.99689 8.99689 0.748594 0.457701 -0.192984
23341 -2.4617 -7.99689 8.99689 -0.963902 -1.01285 -0.19475
23342 -3.4617 -7.99689 8.99689 -0.963902 -0.0343116 0.845533
23343 -3.0911 -7.99689 8.99689 -0.457002 0.178799 -0.224667
23345 -3.7205 -7.99689 8.99689 -0.289425 1.24883 0.398724
21534 -0.944099 -6.7381 9.62629 1.97293 0.811725 -0.691964
21536 -1.5735 -6.7381 9.62629 -0.0541865 0.563353 0.342102
21537 -1.2029 -6.7381 9.62629 0.524306 0.503712 -0.027361
21538 -2.2029 -6.7381 9.62629 0.524306 0.0800951 1.07678
21539 -1.8323 -6.7381 9.62629 -0.652153 1.61847 -1.04699
21594 -0.944099 -7.36749 9.62629 -0.254661 0.735875 0.247742
21596 -1.5735 -7.36749 9.62629 0.0178591 -0.0438376 -0.618515
21597 -1.2029 -7.36749 9.62629 -0.521436 1.24572 -1.09193
21598 -2.2029 -7.36749 9.62629 -0.521436 -0.943275 0.375369
21599 -1.8323 -7.36749 9.62629 -0.6811 -0.780771 -0.170669
21654 -0.944099 -7.99689 9.62629 0.75525 -0.909828 1.08567
21656 -1.5735 -7.99689 9.62629 0.776689 1.08688 -0.729243
21657 -1.2029 -7.99689 9.62629 -0.981048 -0.531036 -0.0531842
21658 -2.2029 -7.99689 9.62629 -0.981048 0.764861 -0.74148
21659 -1.8323 -7.99689 9.62629 -0.662506 -0.154716 -0.537996
23214 -0.944099 -6.7381 8.99689 0.0587127 -0.122442 0.805365
23216 -1.5735 -6.7381 8.99689 -0.380502 0.80398 0.120668
23217 -1.2029 -6.7381 8.99689 -0.186253 0.458674 -1.4388
23218 -2.2029 -6.7381 8.99689 -0.186253 1.26525 -1.30994
23219 -1.8323 -6.7381 8.99689 0.200086 -0.408365 1.40036
23274 -0.944099 -7.36749 8.99689 0.0774205 -1.21778 -0.3261
23276 -1.5735 -7.36749 8.99689 -0.038523 -0.770907 -2.11895
23277 -1.2029 -7.36749 8.99689 -0.428534 1.00992 0.526053
23278 -2.2029 -7.36749 8.99689 -0.428534 1.16141 -0.833409
23279 -1.8323 -7.36749 8.99689 0.505891 0.0957539 0.271075
23334 -0.944099 -7.99689 8.99689 -0.624172 1.18155 -0.90949
23336 -1.5735 -7.99689 8.99689 -0.0950161 -1.3556 0.0105234
23337 -1.2029 -7.99689 8.99689 0.0917897 0.450545 0.714387
23338 -2.2029 -7.99689 8.99689 0.0917897 0.0754304 -0.0426911
23339 -1.8323 -7.99689 8.99689 0.748594 0.188829 -0.00937131
21530 0.3147 -6.7381 9.62629 0.21861 -1.58835 0.452185
21531 0.6853 -6.7381 9.62629 1.13638 -0.602657 1.06738
21532 -0.3147 -6.7381 9.62629 1.13638 -1.48749 -2.63946
21533 0.0559006 -6.7381 9.62629 1.97293 0.514662 -0.585523
21535 -0.573499 -6.7381 9.62629 -0.0541865 0.119167 0.107772
21590 0.3147 -7.36749 9.62629 -0.137897 -1.06746 -0.661135
21591 0.6853 -7.36749 9.62629 -0.195606 2.16815 -0.817602
21592 -0.3147 -7.36749 9.62629 -0.195606 0.67874 -0.532163
21593 0.0559006 -7.36749 9.62629 -0.254661 0.549801 0.426198
21595 -0.573499 -7.36749 9.62629 0.0178591 1.99986 -0.882498
21650 0.3147 -7.99689 9.62629 -0.199434 0.720971 0.376373
21651 0.6853 -7.99689 9.62629 -0.515074 -0.595893 0.477297
21652 -0.3147 -7.99689 9.62629 -0.515074 1.34281 0.0138995
21653 0.0559006 -7.99689 9.62629 0.75525 -0.104173 0.113908
21655 -0.573499 -7.99689 9.62629 0.776689 -1.90757 -0.10869
23210 0.3147 -6.7381 8.99689 0.406296 -0.641343 1.02846
23211 0.6853 -6.7381 8.99689 0.0489989 0.959792 -1.05612
23212 -0.3147 -6.7381 8.99689 0.0489989 1.09147 -0.997418
23213 0.0559006 -6.7381 8.99689 0.0587127 1.12957 0.525608
23215 -0.573499 -6.7381 8.99689 -0.380502 1.35452 -1.39646
23270 0.3147 -7.36749 8.99689 0.799791 -1.32889 -0.059279
23271 0.6853 -7.36749 8.99689 -0.636733 -0.320208 -1.43965
23272 -0.3147 -7.36749 8.99689 -0.636733 0.695417 0.11194
23273 0.0559006 -7.36749 8.99689 0.0774205 -0.442203 2.05112
23275 -0.573499 -7.36749 8.99689 -0.038523 0.855071 -0.195349
23330 0.3147 -7.99689 8.99689 -0.554997 1.61647 -0.00535209
23331 0.6853 -7.99689 8.99689 1.15516 -2.729 -0.00812021
23332 -0.3147 -7.99689 8.99689 1.15516 -0.51301 -0.555403
23333 0.0559006 -7.99689 8.99689 -0.624172 -0.400802 0.953048
23335 -0.573499 -7.99689 8.99689 -0.0950161 -0.210869 -1.11834
21524 2.2029 -6.7381 9.62629 -0.134619 -0.215441 -1.2914
21526 1.5735 -6.7381 9.62629 -0.170727 0.725957 -1.22655
21527 1.9441 -6.7381 9.62629 -1.19832 -0.738568 0.556276
21528 0.944099 -6.7381 9.62629 -1.19832 -0.203951 -0.484164
21529 1.3147 -6.7381 9.62629 0.21861 0.350477 -1.65153
21584 2.2029 -7.36749 9.62629 0.569749 -0.614155 -0.299624
21586 1.5735 -7.36749 9.62629 0.00673464 0.142639 0.130649
21587 1.9441 -7.36749 9.62629 0.952019 0.455636 -0.879002
21588 0.944099 -7.36749 9.62629 0.952019 1.86051 -0.746422
21589 1.3147 -7.36749 9.62629 -0.137897 1.55121 0.280856
21644 2.2029 -7.99689 9.62629 0.107664 0.38584 0.320378
21646 1.5735 -7.99689 9.62629 -0.444276 -0.278052 -0.229339
21647 1.9441 -7.99689 9.62629 -0.0431462 -0.467051 -0.14878
21648 0.944099 -7.99689 9.62629 -0.0431462 1.14728 0.791798
21649 1.3147 -7.99689 9.62629 -0.199434 -0.502292 1.47959
23204 2.2029 -6.7381 8.99689 0.184599 -0.919257 0.162264
23206 1.5735 -6.7381 8.99689 0.484146 -2.07517 -0.360715
23207 1.9441 -6.7381 8.99689 0.261923 -0.588356 2.65887
23208 0.944099 -6.7381 8.99689 0.261923 2.4274 -1.27543
23209 1.3147 -6.7381 8.99689 0.406296 -0.324801 0.592829
23264 2.2029 -7.36749 8.99689 -1.18548 1.23971 -0.275689
23266 1.5735 -7.36749 8.99689 -0.489784 -0.601281 0.604656
23267 1.9441 -7.36749 8.99689 0.61367 -0.237785 1.27851
23268 0.944099 -7.36749 8.99689 0.61367 1.17135 1.30816
23269 1.3147 -7.36749 8.99689 0.799791 0.233296 -1.01415
23324 2.2029 -7.99689 8.99689 -0.176158 0.0819859 0.469503
23326 1.5735 -7.99689 8.99689 1.67688 -0.747384 -1.50879
23327 1.9441 -7.99689 8.99689 0.102202 0.480185 0.255617
23328 0.944099 -7.99689 8.99689 0.102202 -0.637642 1.38326
23329 1.3147 -7.99689 8.99689 -0.554997 -1.29952 -0.106248
21520 3.4617 -6.7381 9.62629 -0.762733 -1.40322 -0.527693
21521 3.8323 -6.7381 9.62629 -0.29509 0.412222 0.0360809
21522 2.8323 -6.7381 9.62629 -0.29509 1.27431 0.562232
21523 3.2029 -6.7381 9.62629 -0.134619 -0.241574 2.11206
21525 2.5735 -6.7381 9.62629 -0.170727 0.428746 0.0974873
21580 3.4617 -7.36749 9.62629 -0.626124 0.0910372 -0.113813
21581 3.8323 -7.36749 9.62629 -1.87366 -0.158909 1.03805
21582 2.8323 -7.36749 9.62629 -1.87366 -0.822517 0.378864
21583 3.2029 -7.36749 9.62629 0.569749 -0.897756 1.75393
21585 2.5735 -7.36749 9.62629 0.00673464 0.638654 1.93751
21640 3.4617 -7.99689 9.62629 -0.538575 0.514145 0.865377
21641 3.8323 -7.99689 9.62629 0.286507 1.2336 -0.604203
21642 2.8323 -7.99689 9.62629 0.286507 1.04662 -0.307301
21643 3.2029 -7.99689 9.62629 0.107664 0.814246 -0.98334
21645 2.5735 -7.99689 9.62629 -0.444276 -0.98051 1.60954
23200 3.4617 -6.7381 8.99689 -0.405617 -0.914944 0.0994104
23201 3.8323 -6.7381 8.99689 -0.672684 0.0343798 1.15578
23202 2.8323 -6.7381 8.99689 -0.672684 -0.793527 -0.0726005
23203 3.2029 -6.7381 8.99689 0.184599 -0.0086718 -0.35002
23205 2.5735 -6.7381 8.99689 0.484146 0.921561 0.281565
23260 3.4617 -7.36749 8.99689 -0.0217306 1.46131 0.320584
23261 3.8323 -7.36749 8.99689 0.371468 0.0198805 -1.97531
23262 2.8323 -7.36749 8.99689 0.371468 -1.14399 0.991825
23263 3.2029 -7.36749 8.99689 -1.18548 -1.18657 -0.343523
23265 2.5735 -7.36749 8.99689 -0.489784 -0.513866 0.990006
23320 3.4617 -7.99689 8.99689 0.207326 -0.80818 -0.845413
23321 3.8323 -7.99689 8.99689 0.462369 0.329672 -1.93176
23322 2.8323 -7.99689 8.99689 0.462369 -0.00449997 -0.0873224
23323 3.2029 -7.99689 8.99689 -0.176158 -0.911167 -0.929916
23325 2.5735 -7.99689 8.99689 1.67688 1.11206 0.0968467
21514 5.3499 -6.7381 9.62629 -0.186277 0.991203 -0.530915
21516 4.7205 -6.7381 9.62629 -0.712814 -0.378551 -0.0972693
21517 5.0911 -6.7381 9.62629 -0.0192755 -1.00023 0.0424945
21518 4.0911 -6.7381 9.62629 -0.0192755 0.482945 -0.663738
21519 4.4617 -6.7381 9.62629 -0.762733 -0.40952 3.18498
21574 5.3499 -7.36749 9.62629 -1.14932 0.611803 0.956659
21576 4.7205 -7.36749 9.62629 0.0370741 -0.69446 -0.347859
21577 5.0911 -7.36749 9.62629 0.126465 -0.500248 0.0491011
21578 4.0911 -7.36749 9.62629 0.126465 0.348325 1.21248
21579 4.4617 -7.36749 9.62629 -0.626124 0.108992 0.576221
21634 5.3499 -7.99689 9.62629 0.550178 -0.0127524 1.31933
21636 4.7205 -7.99689 9.62629 -0.0949294 1.24617 0.985652
21637 5.0911 -7.99689 9.62629 -0.24321 0.0272372 -0.731279
21638 4.0911 -7.99689 9.62629 -0.24321 0.401397 -1.71661
21639 4.4617 -7.99689 9.62629 -0.538575 1.17185 -0.991939
23194 5.3499 -6.7381 8.99689 0.0298595 0.353936 -1.17086
23196 4.7205 -6.7381 8.99689 1.63737 -1.69704 0.549979
23197 5.0911 -6.7381 8.99689 0.243643 -1.08113 0.104842
23198 4.0911 -6.7381 8.99689 0.243643 -0.597028 1.05478
23199 4.4617 -6.7381 8.99689 -0.405617 0.475904 1.47812
23254 5.3499 -7.36749 8.99689 0.0754764 -0.522108 1.12326
23256 4.7205 -7.36749 8.99689 -0.248472 -0.505365 -0.0615071
23257 5.0911 -7.36749 8.99689 0.752722 -1.03231 -0.479397
23258 4.0911 -7.36749 8.99689 0.752722 -0.345759 0.59158
23259 4.4617 -7.36749 8.99689 -0.0217306 -1.56347 -0.257768
23314 5.3499 -7.99689 8.99689 0.187498 -0.566897 0.793739
23316 4.7205 -7.99689 8.99689 -0.548977 -0.396043 0.605759
23317 5.0911 -7.99689 8.99689 0.143394 0.838652 1.99376
23318 4.0911 -7.99689 8.99689 0.143394 0.672738 -0.235164
23319 4.4617 -7.99689 8.99689 0.207326 -0.978183 0.850914
21510 6.6087 -6.7381 9.62629 -0.678602 0.356752 -0.607796
21512 5.9793 -6.7381 9.62629 0.860047 -0.717002 1.52287
21513 6.3499 -6.7381 9.62629 -0.186277 -1.57287 -0.729528
21515 5.7205 -6.7381 9.62629 -0.712814 0.315809 -0.706497
21570 6.6087 -7.36749 9.62629 -0.0528857 1.09557 -0.670279
21572 5.9793 -7.36749 9.62629 -0.0209421 -0.585926 -0.7062
21573 6.3499 -7.36749 9.62629 -1.14932 -1.19189 1.00658
21575 5.7205 -7.36749 9.62629 0.0370741 -0.878841 1.13426
21630 6.6087 -7.99689 9.62629 0.347422 0.0356349 0.915684
21632 5.9793 -7.99689 9.62629 0.16426 -0.231564 -0.39658
21633 6.3499 -7.99689 9.62629 0.550178 0.0491308 0.426255
21635 5.7205 -7.99689 9.62629 -0.0949294 1.00408 -0.804286
23190 6.6087 -6.7381 8.99689 -0.92538 -0.550414 -0.574628
23192 5.9793 -6.7381 8.99689 -1.4237 -0.784364 -1.22029
23193 6.3499 -6.7381 8.99689 0.0298595 -0.663546 0.991924
23195 5.7205 -6.7381 8.99689 1.63737 -0.771866 -0.400597
23250 6.6087 -7.36749 8.99689 -1.24631 0.127413 0.424722
23252 5.9793 -7.36749 8.99689 -0.595243 -0.844408 -0.0472936
23253 6.3499 -7.36749 8.99689 0.0754764 -0.503125 0.224778
23255 5.7205 -7.36749 8.99689 -0.248472 -0.0793724 -1.48957
23310 6.6087 -7.99689 8.99689 0.0328328 -0.0556236 -0.173565
23312 5.9793 -7.99689 8.99689 1.39495 -0.312973 0.92283
23313 6.3499 -7.99689 8.99689 0.187498 -1.88814 -1.70062
23315 5.7205 -7.99689 8.99689 -0.548977 -1.35033 0.00765502
21506 7.86749 -6.7381 9.62629 -0.0985266 0.568125 -0.234594
21507 8.2381 -6.7381 9.62629 0.411431 0.49184 1.12031
21508 7.2381 -6.7381 9.62629 0.411431 -1.1976 0.425199
21509 7.6087 -6.7381 9.62629 -0.678602 -0.154974 -0.331476
21511 6.9793 -6.7381 9.62629 0.860047 0.913443 1.21109
21566 7.86749 -7.36749 9.62629 -0.364193 -0.32023 -0.968237
21567 8.2381 -7.36749 9.62629 0.767352 -1.60182 0.915107
21568 7.2381 -7.36749 9.62629 0.767352 1.67138 -0.822473
21569 7.6087 -7.36749 9.62629 -0.0528857 0.198601 1.13666
21571 6.9793 -7.36749 9.62629 -0.0209421 -1.44241 -0.914652
21626 7.86749 -7.99689 9.62629 0.721085 -0.2736 1.04833
21627 8.2381 -7.99689 9.62629 -0.78177 0.827909 -0.182527
21628 7.2381 -7.99689 9.62629 -0.78177 0.328906 -0.344074
21629 7.6087 -7.99689 9.62629 0.347422 0.482988 0.381659
21631 6.9793 -7.99689 9.62629 0.16426 0.786397 -0.133108
23186 7.86749 -6.7381 8.99689 -1.12894 -2.09625 -0.252736
23187 8.2381 -6.7381 8.99689 -1.03228 -0.424924 0.0525254
23188 7.2381 -6.7381 8.99689 -1.03228 -0.0999176 2.12016
23189 7.6087 -6.7381 8.99689 -0.92538 0.82467 -1.21598
23191 6.9793 -6.7381 8.99689 -1.4237 -0.694359 -0.4529
23246 7.86749 -7.36749 8.99689 0.919749 -0.464142 0.000290486
23247 8.2381 -7.36749 8.99689 -1.07717 -0.343462 -1.44719
23248 7.2381 -7.36749 8.99689 -1.07717 1.13395 0.0373754
23249 7.6087 -7.36749 8.99689 -1.24631 0.682381 -0.302954
23251 6.9793 -7.36749 8.99689 -0.595243 0.503034 0.0528446
23306 7.86749 -7.99689 8.99689 0.299757 0.405738 0.8502
23307 8.2381 -7.99689 8.99689 0.107574 -1.93052 -0.460522
23308 7.2381 -7.99689 8.99689 0.107574 1.08505 -0.0532436
23309 7.6087 -7.99689 8.99689 0.0328328 -0.137363 -0.505041
23311 6.9793 -7.99689 8.99689 1.39495 1.12187 -0.62676
21502 9.12629 -6.7381 9.62629 -0.825214 -0.233412 0.874442
21503 9.49689 -6.7381 9.62629 -0.743954 -2.18168 -0.0952676
21504 8.49689 -6.7381 9.62629 -0.743954 0.0250217 -0.0485027
21505 8.86749 -6.7381 9.62629 -0.0985266 0.759989 -0.883718
21562 9.12629 -7.36749 9.62629 0.675296 1.03141 0.257652
21563 9.49689 -7.36749 9.62629 -1.90691 0.274331 -1.58719
21564 8.49689 -7.36749 9.62629 -1.90691 0.67225 2.00245
21565 8.86749 -7.36749 9.62629 -0.364193 -0.471462 -0.102052
21622 9.12629 -7.99689 9.62629 -1.08089 -0.885999 0.971532
21623 9.49689 -7.99689 9.62629 0.162221 -0.760891 -1.01984
21624 8.49689 -7.99689 9.62629 0.162221 2.26181 -0.0532164
21625 8.86749 -7.99689 9.62629 0.721085 1.76848 -0.130582
23182 9.12629 -6.7381 8.99689 -0.495827 0.631032 -1.91307
23183 9.49689 -6.7381 8.99689 -0.42314 -1.14442 -1.59254
23184 8.49689 -6.7381 8.99689 -0.42314 1.25922 -0.0684137
23185 8.86749 -6.7381 8.99689 -1.12894 -0.672488 0.082331
23242 9.12629 -7.36749 8.99689 -0.925181 0.905775 -2.04279
23243 9.49689 -7.36749 8.99689 0.00697398 0.768976 0.569739
23244 8.49689 -7.36749 8.99689 0.00697398 0.587541 0.0482347
23245 8.86749 -7.36749 8.99689 0.919749 -1.12786 0.445607
23302 9.12629 -7.99689 8.99689 -0.583972 -0.509694 -0.188361
23303 9.49689 -7.99689 8.99689 0.191129 -0.292738 0.345692
23304 8.49689 -7.99689 8.99689 0.191129 0.00230981 -0.914797
23305 8.86749 -7.99689 8.99689 0.299757 0.0520669 0.314869
21381 10.1263 -5.4793 9.62629 -0.409421 -0.604787 -1.54013
21438 -8.49689 -5.4793 9.62629 0.401874 -0.967143 -1.19442
21440 -9.12629 -5.4793 9.62629 -0.428065 -1.82045 0.17894
21441 10.1263 -6.1087 9.62629 0.422503 -0.865197 0.764289
21498 -8.49689 -6.1087 9.62629 -0.0106134 0.659539 2.2963
21500 -9.12629 -6.1087 9.62629 -0.18639 -1.62097 -0.930556
23061 10.1263 -5.4793 8.99689 0.623143 0.0557148 0.64855
23118 -8.49689 -5.4793 8.99689 -0.561628 -0.107423 -0.447891
23120 -9.12629 -5.4793 8.99689 0.45655 1.08284 1.13191
23121 10.1263 -6.1087 8.99689 0.00411052 1.96949 0.842917
23178 -8.49689 -6.1087 8.99689 0.569972 0.0799268 0.332446
23180 -9.12629 -6.1087 8.99689 -0.885165 -0.579917 -0.681014
21434 -7.2381 -5.4793 9.62629 -0.960673 -1.16049 0.494388
21436 -7.86749 -5.4793 9.62629 0.775426 -0.632422 0.0281165
21437 -7.49689 -5.4793 9.62629 0.401874 -0.0345159 0.67915
21439 -8.12629 -5.4793 9.62629 -0.428065 1.65875 2.46265
21494 -7.2381 -6.1087 9.62629 -0.833697 0.124521 0.993924
21496 -7.86749 -6.1087 9.62629 -0.483923 0.102966 -0.00199863
21497 -7.49689 -6.1087 9.62629 -0.0106134 0.792904 -0.555221
21499 -8.12629 -6.1087 9.62629 -0.18639 0.367171 -0.392498
23114 -7.2381 -5.4793 8.99689 -0.658136 -1.1886 1.57801
23116 -7.86749 -5.4793 8.99689 -0.76239 -2.30978 -1.88125
23117 -7.49689 -5.4793 8.99689 -0.561628 0.983518 -0.740661
23119 -8.12629 -5.4793 8.99689 0.45655 0.650631 -1.41101
23174 -7.2381 -6.1087 8.99689 0.93689 0.544176 -0.368176
23176 -7.86749 -6.1087 8.99689 0.210134 0.576044 -0.510819
23177 -7.49689 -6.1087 8.99689 0.569972 -2.86674 0.081493
23179 -8.12629 -6.1087 8.99689 -0.885165 0.725658 0.571359
21430 -5.9793 -5.4793 9.62629 0.0102747 0.0330821 -1.59986
21431 -5.6087 -5.4793 9.62629 -0.664659 0.196574 -0.0300237
21432 -6.6087 -5.4793 9.62629 -0.664659 0.723064 0.352067
21433 -6.2381 -5.4793 9.62629 -0.960673 -0.355801 0.260018
21435 -6.86749 -5.4793 9.62629 0.775426 0.0329015 0.110425
21490 -5.9793 -6.1087 9.62629 -1.08609 -0.904665 0.746833
21491 -5.6087 -6.1087 9.62629 -0.678071 -1.11284 0.794984
21492 -6.6087 -6.1087 9.62629 -0.678071 -0.0674595 0.993379
21493 -6.2381 -6.1087 9.62629 -0.833697 1.72012 -1.33016
21495 -6.86749 -6.1087 9.62629 -0.483923 0.206987 1.06385
23110 -5.9793 -5.4793 8.99689 0.5323 1.2795 -0.398156
23111 -5.6087 -5.4793 8.99689 0.817142 1.02277 -0.362832
23112 -6.6087 -5.4793 8.99689 0.817142 0.43359 0.69436
23113 -6.2381 -5.4793 8.99689 -0.658136 0.2922 -0.255211
23115 -6.86749 -5.4793 8.99689 -0.76239 -0.349649 -1.67411
23170 -5.9793 -6.1087 8.99689 0.691283 1.49974 -0.770059
23171 -5.6087 -6.1087 8.99689 0.586305 0.281663 0.349611
23172 -6.6087 -6.1087 8.99689 0.586305 -0.244092 0.474039
23173 -6.2381 -6.1087 8.99689 0.93689 -0.0807336 -0.591703
23175 -6.86749 -6.1087 8.99689 0.210134 1.23634 -0.801538
21424 -4.0911 -5.4793 9.62629 -0.0174458 0.530385 0.736427
21426 -4.7205 -5.4793 9.62629 0.571874 0.00098234 -0.304347
21427 -4.3499 -5.4793 9.62629 0.338073 0.969524 0.0147945
21428 -5.3499 -5.4793 9.62629 0.338073 -0.863778 0.395901
21429 -4.9793 -5.4793 9.62629 0.0102747 -0.959004 -1.16211
21484 -4.0911 -6.1087 9.62629 -0.00808866 -0.284596 1.42612
21486 -4.7205 -6.1087 9.62629 0.590627 1.23905 -0.362561
21487 -4.3499 -6.1087 9.62629 -0.791438 1.00923 -1.00029
21488 -5.3499 -6.1087 9.62629 -0.791438 0.380555 0.354267
21489 -4.9793 -6.1087 9.62629 -1.08609 -2.20999 -0.663836
23104 -4.0911 -5.4793 8.99689 0.766913 0.0244715 1.27
23106 -4.7205 -5.4793 8.99689 -1.78686 -0.275675 -0.193112
23107 -4.3499 -5.4793 8.99689 -0.883672 0.00439457 -0.0944513
23108 -5.3499 -5.4793 8.99689 -0.883672 2.71404 0.347843
23109 -4.9793 -5.4793 8.99689 0.5323 -0.862432 -1.01573
23164 -4.0911 -6.1087 8.99689 -0.0654893 0.341844 0.629648
23166 -4.7205 -6.1087 8.99689 -0.939407 -1.75879 0.0559777
23167 -4.3499 -6.1087 8.99689 -0.0861287 -2.18092 -0.427725
23168 -5.3499 -6.1087 8.99689 -0.0861287 0.374955 -0.799562
23169 -4.9793 -6.1087 8.99689 0.691283 -0.783667 0.0883841
21420 -2.8323 -5.4793 9.62629 -0.0710227 0.5526 -0.516132
21421 -2.4617 -5.4793 9.62629 -1.10358 -0.616202 -1.15872
21422 -3.4617 -5.4793 9.62629 -1.10358 -1.15678 0.467422
21423 -3.0911 -5.4793 9.62629 -0.0174458 1.2172 -2.39689
21425 -3.7205 -5.4793 9.62629 0.571874 0.156141 -1.19358
21480 -2.8323 -6.1087 9.62629 -0.658412 -0.749566 -0.630006
21481 -2.4617 -6.1087 9.62629 -0.56847 0.62288 0.65858
21482 -3.4617 -6.1087 9.62629 -0.56847 -0.553073 -0.191287
21483 -3.0911 -6.1087 9.62629 -0.00808866 0.842281 -1.38618
21485 -3.7205 -6.1087 9.62629 0.590627 0.119889 1.02783
23100 -2.8323 -5.4793 8.99689 1.01157 1.13737 -0.323949
23101 -2.4617 -5.4793 8.99689 0.0831982 -1.97665 0.664698
23102 -3.4617 -5.4793 8.99689 0.0831982 1.10487 -0.357705
23103 -3.0911 -5.4793 8.99689 0.766913 0.0463433 -1.11568
23105 -3.7205 -5.4793 8.99689 -1.78686 0.169788 -0.748011
23160 -2.8323 -6.1087 8.99689 0.342357 0.199047 1.28181
23161 -2.4617 -6.1087 8.99689 0.619504 0.53081 -0.0168248
23162 -3.4617 -6.1087 8.99689 0.619504 0.0440957 -0.911607
23163 -3.0911 -6.1087 8.99689 -0.0654893 0.786625 1.71554
23165 -3.7205 -6.1087 8.99689 -0.939407 -0.504199 -0.96849
21414 -0.944099 -5.4793 9.62629 -0.667568 0.155479 -2.44777
21416 -1.5735 -5.4793 9.62629 -0.431797 0.280871 0.114942
21417 -1.2029 -5.4793 9.62629 -1.07438 1.13436 0.849923
21418 -2.2029 -5.4793 9.62629 -1.07438 2.0061 -0.158038
21419 -1.8323 -5.4793 9.62629 -0.0710227 -0.604532 0.556953
21474 -0.944099 -6.1087 9.62629 -1.29343 0.55311 1.79543
21476 -1.5735 -6.1087 9.62629 1.07268 -0.717894 0.575195
21477 -1.2029 -6.1087 9.62629 -1.01979 -0.43063 1.07285
21478 -2.2029 -6.1087 9.62629 -1.01979 -0.305538 -0.0793123
21479 -1.8323 -6.1087 9.62629 -0.658412 -0.141262 1.43423
23094 -0.944099 -5.4793 8.99689 -0.195007 -0.792892 -1.10365
23096 -1.5735 -5.4793 8.99689 0.412709 -1.13075 -0.526413
23097 -1.2029 -5.4793 8.99689 -0.0165873 -0.0957882 1.68583
23098 -2.2029 -5.4793 8.99689 -0.0165873 1.12084 -0.690784
23099 -1.8323 -5.4793 8.99689 1.01157 0.117798 0.120376
23154 -0.944099 -6.1087 8.99689 0.039579 2.01881 0.0956619
23156 -1.5735 -6.1087 8.99689 0.651031 1.23435 2.13184
23157 -1.2029 -6.1087 8.99689 -0.341202 1.31991 0.585173
23158 -2.2029 -6.1087 8.99689 -0.341202 0.0552314 0.291893
23159 -1.8323 -6.1087 8.99689 0.342357 1.31756 0.284215
21410 0.3147 -5.4793 9.62629 0.237517 -0.293613 0.259247
21411 0.6853 -5.4793 9.62629 -1.16393 0.460783 0.72082
21412 -0.3147 -5.4793 9.62629 -1.16393 -0.919825 -1.35136
21413 0.0559006 -5.4793 9.62629 -0.667568 0.0820917 0.434238
21415 -0.573499 -5.4793 9.62629 -0.431797 -0.479047 -0.582682
21470 0.3147 -6.1087 9.62629 0.634753 -0.914234 -0.875726
21471 0.6853 -6.1087 9.62629 0.0896276 -1.61806 0.295051
21472 -0.3147 -6.1087 9.62629 0.0896276 0.726674 -0.908314
21473 0.0559006 -6.1087 9.62629 -1.29343 -0.420719 1.04805
21475 -0.573499 -6.1087 9.62629 1.07268 -1.58847 -0.870374
23090 0.3147 -5.4793 8.99689 -0.201355 -1.60654 1.48797
23091 0.6853 -5.4793 8.99689 0.0218699 1.20834 1.01552
23092 -0.3147 -5.4793 8.99689 0.0218699 0.080455 -1.20028
23093 0.0559006 -5.4793 8.99689 -0.195007 -1.38877 -0.499528
23095 -0.573499 -5.4793 8.99689 0.412709 -0.0726032 1.63286
23150 0.3147 -6.1087 8.99689 -0.187152 0.651323 0.167094
23151 0.6853 -6.1087 8.99689 0.247223 1.1001 1.02289
23152 -0.3147 -6.1087 8.99689 0.247223 -0.977793 0.746669
23153 0.0559006 -6.1087 8.99689 0.039579 0.741972 0.119709
23155 -0.573499 -6.1087 8.99689 0.651031 -0.465032 -1.19504
21404 2.2029 -5.4793 9.62629 -0.39085 1.33314 0.345879
21406 1.5735 -5.4793 9.62629 0.307782 0.977632 0.818998
21407 1.9441 -5.4793 9.62629 1.60909 -1.78782 0.414053
21408 0.944099 -5.4793 9.62629 1.60909 -0.253702 -0.945892
21409 1.3147 -5.4793 9.62629 0.237517 0.0441468 0.19657
21464 2.2029 -6.1087 9.62629 -2.18324 0.484368 0.410077
21466 1.5735 -6.1087 9.62629 -1.48604 -1.12144 0.125493
21467 1.9441 -6.1087 9.62629 0.0596111 -0.6078 0.604868
21468 0.944099 -6.1087 9.62629 0.0596111 0.0391044 -0.417071
21469 1.3147 -6.1087 9.62629 0.634753 -0.25965 -0.849263
23084 2.2029 -5.4793 8.99689 -0.0994744 -0.234407 1.35062
23086 1.5735 -5.4793 8.99689 0.429281 0.655475 1.02503
23087 1.9441 -5.4793 8.99689 -0.106595 -0.522518 -0.249869
23088 0.944099 -5.4793 8.99689 -0.106595 -0.680417 -0.898446
23089 1.3147 -5.4793 8.99689 -0.201355 -0.186745 0.698764
23144 2.2029 -6.1087 8.99689 -0.654754 2.01394 -0.741951
23146 1.5735 -6.1087 8.99689 0.308589 -0.491964 -0.786946
23147 1.9441 -6.1087 8.99689 0.499064 -0.901638 -0.103148
23148 0.944099 -6.1087 8.99689 0.499064 0.279888 1.52453
23149 1.3147 -6.1087 8.99689 -0.187152 -0.13237 -1.53808
21400 3.4617 -5.4793 9.62629 -0.380267 -0.90803 1.49981
21401 3.8323 -5.4793 9.62629 -0.167499 0.863991 0.172661