LAMMPS (23 Jun 2022 - Update 4)
# Defining system
units           lj
atom_style     atomic
boundary       p p p
dimension      3

# Read positions from external file
read_data ../Data/brownian_L_20.0_rho_0.2.data
Reading data file ...
  orthogonal box = (-10 -10 -10) to (10 10 10)
  1 by 2 by 2 MPI processor grid
  reading atoms ...
  3200 atoms
  read_data CPU = 0.005 seconds

# System variables
variable seed equal 414543
variable temperature equal 1.0
variable D equal 1           #difusion constant
variable gamma equal 1.0/${D}   #translational friction
variable gamma equal 1.0/1   
variable rc equal 1.122462048   #cutoff radius

# Atom types
group dumbbell type 1
3200 atoms in group dumbbell
mass 1 1.0

# Define time integration
timestep 0.00001
fix 1 all nve

# Brownian fix
fix brownFix dumbbell brownian ${temperature} ${seed} gamma_t ${gamma} rng gaussian
fix brownFix dumbbell brownian 1 ${seed} gamma_t ${gamma} rng gaussian
fix brownFix dumbbell brownian 1 414543 gamma_t ${gamma} rng gaussian
fix brownFix dumbbell brownian 1 414543 gamma_t 1 rng gaussian

# Start with soft potential so particles push apart each other slowly
#pair_style soft ${rc}
#pair_coeff 1 1  100.0 ${rc}

#run 100000

# Switch to Lennard-Jones interatomic potential
#pair_style lj/cut 2.5
#pair_coeff 1 1 1.0 1.0 ${rc}

pair_style none

# MSD
compute msd1 dumbbell msd
variable msd1 equal c_msd1[4]
fix msd1fix dumbbell ave/time 1 1 1  c_msd1[4] file msd_rho_0.2.data

thermo_style custom step temp
thermo 1000

dump 1 dumbbell custom 10000 dump.rho_0.2 id  xu yu zu vx vy vz

# Run simulation
run 5000000
WARNING: One or more atoms are time integrated more than once (../modify.cpp:292)
WARNING: No pairwise cutoff or binsize set. Atom sorting therefore disabled. (../atom.cpp:2142)
WARNING: Communication cutoff is 0.0. No ghost atoms will be generated. Atoms may get lost. (../comm_brick.cpp:210)
Per MPI rank memory allocation (min/avg/max) = 3.969 | 3.969 | 3.969 Mbytes
   Step          Temp     
         0   0            
      1000   200434.03    
      2000   204879       
      3000   199172.89    
      4000   199181.53    
      5000   197159.72    
      6000   200142.48    
      7000   201675.4     
      8000   201913.96    
      9000   196826.32    
     10000   195344.05    
     11000   201047.07    
     12000   203081.76    
     13000   202627.07    
     14000   195528.6     
     15000   195236.67    
     16000   200673.9     
     17000   203641.91    
     18000   197786.82    
     19000   205694.24    
     20000   198069.29    
     21000   199808.27    
     22000   193597.9     
     23000   194831.4     
     24000   201129.4     
     25000   199117.34    
     26000   203386.69    
     27000   195575.13    
     28000   201576.61    
     29000   202421.96    
     30000   198880.67    
     31000   194308.9     
     32000   198587.31    
     33000   197295.29    
     34000   198105.54    
     35000   205164.36    
     36000   204262.28    
     37000   202749.05    
     38000   200476.34    
     39000   196231.53    
     40000   201591.42    
     41000   199530.96    
     42000   199579.43    
     43000   198674.5     
     44000   204262.28    
     45000   203877.24    
     46000   200248.62    
     47000   199041.79    
     48000   197170.26    
     49000   200115.37    
     50000   201443.28    
     51000   195828.69    
     52000   203393       
     53000   201707.36    
     54000   195879.05    
     55000   203292.5     
     56000   198112.67    
     57000   196569.81    
     58000   197888.07    
     59000   201082.73    
     60000   205851.35    
     61000   196249.81    
     62000   196147.75    
     63000   200356.61    
     64000   201470.17    
     65000   195297.11    
     66000   200166.36    
     67000   200194.45    
     68000   200607.81    
     69000   202845.43    
     70000   197615.68    
     71000   203012.91    
     72000   200478.64    
     73000   197701.76    
     74000   196732.35    
     75000   201714.36    
     76000   205711.45    
     77000   193204.94    
     78000   200975.98    
     79000   199333       
     80000   200961.86    
     81000   197381.98    
     82000   201053.53    
     83000   199037.95    
     84000   201892.53    
     85000   201328.37    
     86000   196770.82    
     87000   193672.47    
     88000   198929.59    
     89000   201435.3     
     90000   201712.16    
     91000   203840.2     
     92000   196942.76    
     93000   199297.25    
     94000   198363.59    
     95000   196314.91    
     96000   200670.14    
     97000   200294.6     
     98000   199193.7     
     99000   197631.84    
    100000   198477.23    
    101000   207759.4     
    102000   199305.11    
    103000   196880.3     
    104000   206115.61    
    105000   205158.74    
    106000   197377.78    
    107000   199849.48    
    108000   198327.35    
    109000   200141.26    
    110000   200024.26    
    111000   196297.93    
    112000   203634.1     
    113000   207788.34    
    114000   195819.18    
    115000   200663.75    
    116000   201824.4     
    117000   203711.27    
    118000   195079.3     
    119000   197459.42    
    120000   200124.29    
    121000   201713.96    
    122000   203298.04    
    123000   201804.68    
    124000   198702.37    
    125000   204811.82    
    126000   197715.13    
    127000   202957.26    
    128000   199453.31    
    129000   204970.31    
    130000   198327.08    
    131000   194443.57    
    132000   199629.81    
    133000   204269.9     
    134000   200714.59    
    135000   197776.64    
    136000   201847.36    
    137000   198514.84    
    138000   201137.44    
    139000   206151.46    
    140000   199869.47    
    141000   196962.64    
    142000   198614       
    143000   202015.36    
    144000   200880.55    
    145000   196660.04    
    146000   198120.37    
    147000   201508.38    
    148000   202128.38    
    149000   204716.23    
    150000   200258.4     
    151000   202694.25    
    152000   198711.46    
    153000   202020.92    
    154000   196238.91    
    155000   201756.51    
    156000   198194.71    
    157000   202783.83    
    158000   201233.88    
    159000   202789.91    
    160000   200515.61    
    161000   201679.55    
    162000   200175.4     
    163000   198128.82    
    164000   195193.44    
    165000   207709.63    
    166000   201318.2     
    167000   200766.68    
    168000   195255.32    
    169000   202567.04    
    170000   197911.89    
    171000   199247.41    
    172000   195322       
    173000   201807.96    
    174000   195054.44    
    175000   203137.42    
    176000   200332.32    
    177000   202459.22    
    178000   201495.81    
    179000   201466.21    
    180000   200455.51    
    181000   194359.26    
    182000   204393.34    
    183000   201876.08    
    184000   198507.43    
    185000   202074.62    
    186000   197368.03    
    187000   206219.91    
    188000   201594.01    
    189000   198311.04    
    190000   204291.28    
    191000   201059.93    
    192000   199559.71    
    193000   202968.6     
    194000   202444.76    
    195000   201073.49    
    196000   198204.13    
    197000   197168.68    
    198000   195660.91    
    199000   197001.71    
    200000   197645.8     
    201000   201997.71    
    202000   195094.49    
    203000   194977.41    
    204000   199500.64    
    205000   199787.16    
    206000   205094.19    
    207000   200908.58    
    208000   201695.65    
    209000   200985.42    
    210000   203183.57    
    211000   202652.49    
    212000   200911.02    
    213000   198010.16    
    214000   199325.59    
    215000   196831.88    
    216000   196286.71    
    217000   201079.98    
    218000   200756.13    
    219000   195985.59    
    220000   196798.04    
    221000   198080.97    
    222000   201157.9     
    223000   199340.61    
    224000   198141.96    
    225000   199284.83    
    226000   198658.15    
    227000   194919.54    
    228000   199151       
    229000   200660.17    
    230000   199820.64    
    231000   201838.92    
    232000   199177.63    
    233000   195394.75    
    234000   200173.13    
    235000   201436.77    
    236000   198946.79    
    237000   200069.05    
    238000   196770.05    
    239000   199559.57    
    240000   201042.47    
    241000   201484.88    
    242000   202172.01    
    243000   200573.88    
    244000   200756.73    
    245000   205428.88    
    246000   199962.76    
    247000   196978.99    
    248000   200731.57    
    249000   199420.96    
    250000   200977.3     
    251000   199881.18    
    252000   200902.49    
    253000   201194.69    
    254000   199948.81    
    255000   203685.68    
    256000   196405.11    
    257000   201135.89    
    258000   195965.3     
    259000   195731.35    
    260000   196233.48    
    261000   199271.41    
    262000   200146.62    
    263000   197306.47    
    264000   201484.7     
    265000   200091.93    
    266000   195011.57    
    267000   203614.82    
    268000   205937.57    
    269000   197378.16    
    270000   201545.56    
    271000   199789.21    
    272000   201195.06    
    273000   196590.04    
    274000   200047.57    
    275000   204837.39    
    276000   200672.49    
    277000   201566.33    
    278000   191372.44    
    279000   199447.36    
    280000   200451.58    
    281000   200225.05    
    282000   203370.51    
    283000   199043.26    
    284000   200450.83    
    285000   195142.7     
    286000   203295.68    
    287000   197471.04    
    288000   198064.25    
    289000   198942.26    
    290000   201437.62    
    291000   199913.28    
    292000   197251.28    
    293000   200948.46    
    294000   193819.19    
    295000   195237.73    
    296000   202888.79    
    297000   207851.49    
    298000   204480.25    
    299000   201303.22    
    300000   197788.41    
    301000   202424.07    
    302000   201783.1     
    303000   192454.51    
    304000   204505.73    
    305000   197895.86    
    306000   199492.18    
    307000   203949.75    
    308000   199914.43    
    309000   196209.77    
    310000   195768.29    
    311000   194100.1     
    312000   203737.15    
    313000   200719.31    
    314000   201129.71    
    315000   198195.4     
    316000   196060.92    
    317000   200069.93    
    318000   194538.9     
    319000   201670.92    
    320000   195558.13    
    321000   198985.31    
    322000   200087.68    
    323000   198627.14    
    324000   200556.72    
    325000   205196.4     
    326000   202000.7     
    327000   202192.32    
    328000   198254.78    
    329000   195291.32    
    330000   201839.13    
    331000   199821.2     
    332000   200453.06    
    333000   194080.82    
    334000   198699.26    
    335000   203666.28    
    336000   201656.57    
    337000   196372.31    
    338000   201129.95    
    339000   199279.58    
    340000   197730.97    
    341000   200004.46    
    342000   201583.82    
    343000   200173.69    
    344000   197569.05    
    345000   199068.19    
    346000   200060.45    
    347000   200993.4     
    348000   196429.97    
    349000   202265.78    
    350000   201137.18    
    351000   197688.9     
    352000   198139.61    
    353000   192365.58    
    354000   196246.14    
    355000   200068.06    
    356000   202378.45    
    357000   200164.53    
    358000   199191.67    
    359000   199516.53    
    360000   201721.17    
    361000   197433.13    
    362000   200159.74    
    363000   201907.17    
    364000   196880.11    
    365000   203352.01    
    366000   197505.4     
    367000   199137.37    
    368000   198649.7     
    369000   203696.94    
    370000   199775.97    
    371000   204967.04    
    372000   196251.08    
    373000   202849.54    
    374000   204149.35    
    375000   201669.67    
    376000   198879.07    
    377000   203269.59    
    378000   200062.85    
    379000   201856.16    
    380000   196819.85    
    381000   202762.51    
    382000   201184.79    
    383000   198992.15    
    384000   198930.57    
    385000   199509.22    
    386000   202659.3     
    387000   199954.83    
    388000   200715.58    
    389000   201541.63    
    390000   201096.36    
    391000   197086.86    
    392000   200205.98    
    393000   198397.62    
    394000   204181.05    
    395000   198547.62    
    396000   205013.47    
    397000   204536.78    
    398000   200331.07    
    399000   199255.24    
    400000   194614.85    
    401000   197936.09    
    402000   196067.13    
    403000   196413.07    
    404000   203084.56    
    405000   200937.54    
    406000   203137.28    
    407000   198367.39    
    408000   194114.99    
    409000   195597.33    
    410000   205392.85    
    411000   200508.23    
    412000   195503.34    
    413000   203656.02    
    414000   200884.2     
    415000   200775.46    
    416000   201935.08    
    417000   200257.92    
    418000   198068.48    
    419000   202597.48    
    420000   203546.35    
    421000   201126.43    
    422000   194472.65    
    423000   196929.46    
    424000   201259.89    
    425000   202313.64    
    426000   197810.35    
    427000   193686.57    
    428000   199302.88    
    429000   202265.22    
    430000   196656.74    
    431000   198159.37    
    432000   201112.47    
    433000   204802.95    
    434000   200867.03    
    435000   203731.14    
    436000   200260.72    
    437000   199528.37    
    438000   201983.7     
    439000   198122.19    
    440000   201048.37    
    441000   202199.67    
    442000   203339.85    
    443000   196639.97    
    444000   202487       
    445000   200233.92    
    446000   200807.95    
    447000   201730.49    
    448000   202130.27    
    449000   195658.61    
    450000   203466.32    
    451000   196466.86    
    452000   195015.07    
    453000   192994.34    
    454000   200904.98    
    455000   204369.62    
    456000   198167.42    
    457000   197977.64    
    458000   200608.35    
    459000   200354.81    
    460000   198109.45    
    461000   199971.38    
    462000   204835.43    
    463000   195933.07    
    464000   201521.18    
    465000   200191.89    
    466000   204107.83    
    467000   206359.49    
    468000   200027.15    
    469000   199289.83    
    470000   193805.45    
    471000   205115.49    
    472000   196715.14    
    473000   204137.75    
    474000   198445.1     
    475000   200277.62    
    476000   198809.18    
    477000   199936.14    
    478000   197010.94    
    479000   198361.91    
    480000   197206.78    
    481000   201231.41    
    482000   203983.5     
    483000   200559.58    
    484000   199321       
    485000   198625.3     
    486000   203178.65    
    487000   203287.7     
    488000   199050.75    
    489000   201279.83    
    490000   203445.98    
    491000   199042.23    
    492000   205080.07    
    493000   195624.18    
    494000   199289.98    
    495000   201510.11    
    496000   200532.35    
    497000   198907.44    
    498000   202664.81    
    499000   196699.14    
    500000   197897.44    
    501000   201688.32    
    502000   203167.25    
    503000   197954.84    
    504000   199621.49    
    505000   196811.06    
    506000   194617.8     
    507000   201059.14    
    508000   202704.25    
    509000   195708.96    
    510000   203102.13    
    511000   196867.66    
    512000   202934.53    
    513000   199626.62    
    514000   202463.18    
    515000   200067.62    
    516000   196137.25    
    517000   201722.15    
    518000   198843.76    
    519000   202301.6     
    520000   201062.26    
    521000   196076.82    
    522000   207802.6     
    523000   201671.74    
    524000   199130.1     
    525000   199411.98    
    526000   197339.28    
    527000   200173.32    
    528000   199299.72    
    529000   198267.22    
    530000   199390.93    
    531000   200922.42    
    532000   193890.02    
    533000   200882.78    
    534000   196059.94    
    535000   201808.4     
    536000   198668.08    
    537000   199689.19    
    538000   196844.01    
    539000   197669.27    
    540000   197818.41    
    541000   200576.45    
    542000   201185.78    
    543000   202937.37    
    544000   199952.73    
    545000   204216.9     
    546000   202993.87    
    547000   204447.38    
    548000   191974.82    
    549000   199471.84    
    550000   200513.72    
    551000   199588.67    
    552000   200533.74    
    553000   201659.58    
    554000   198779.42    
    555000   200245.08    
    556000   199698.87    
    557000   199991.06    
    558000   200397.8     
    559000   196625.72    
    560000   192848.28    
    561000   201720.89    
    562000   198940.4     
    563000   200613.18    
    564000   199981.18    
    565000   199715.67    
    566000   199992.84    
    567000   195956.49    
    568000   200592.75    
    569000   201976.29    
    570000   197243.09    
    571000   200581.31    
    572000   198943.8     
    573000   200708.5     
    574000   195426.32    
    575000   195977.45    
    576000   202354.59    
    577000   197717.7     
    578000   203441.72    
    579000   200358.05    
    580000   194141.42    
    581000   194562.15    
    582000   201596.14    
    583000   202581.75    
    584000   202103.91    
    585000   199048.63    
    586000   202457.77    
    587000   201780.55    
    588000   203761.42    
    589000   198361.87    
    590000   203408.65    
    591000   195975.8     
    592000   197597.18    
    593000   201677.41    
    594000   197000.64    
    595000   199681.99    
    596000   194001.78    
    597000   196407.86    
    598000   201831.06    
    599000   203011.85    
    600000   203036.89    
    601000   202065.42    
    602000   199709.85    
    603000   198893.23    
    604000   201125.61    
    605000   199352.39    
    606000   194542.05    
    607000   199718.15    
    608000   197118.56    
    609000   200411.75    
    610000   200470.27    
    611000   197229.92    
    612000   202491       
    613000   201469.49    
    614000   200059.65    
    615000   205078.7     
    616000   201615.23    
    617000   197943.43    
    618000   202422.5     
    619000   199122.27    
    620000   197240.24    
    621000   201584.8     
    622000   198336.36    
    623000   198386       
    624000   208087.75    
    625000   194351.93    
    626000   198988.17    
    627000   197412.38    
    628000   201091.89    
    629000   203352.68    
    630000   199407.01    
    631000   202744.5     
    632000   200165.95    
    633000   200248.96    
    634000   199718.32    
    635000   199941       
    636000   202442.63    
    637000   200377.74    
    638000   198533.29    
    639000   200090.68    
    640000   200311.08    
    641000   199188.68    
    642000   197236.47    
    643000   203570.57    
    644000   205991.42    
    645000   197582.23    
    646000   204518.79    
    647000   205559.51    
    648000   199577.74    
    649000   203836.42    
    650000   203030.41    
    651000   197343.01    
    652000   196168.29    
    653000   198049.42    
    654000   202053.68    
    655000   204506.08    
    656000   203478.4     
    657000   195560.41    
    658000   201585.05    
    659000   200465.1     
    660000   200986.17    
    661000   201768.72    
    662000   198396.74    
    663000   197533.46    
    664000   202108.13    
    665000   201008.36    
    666000   201354.72    
    667000   199772.5     
    668000   203318.84    
    669000   200936.79    
    670000   195916.76    
    671000   199913       
    672000   198478.95    
    673000   195382.17    
    674000   199314.28    
    675000   196824.76    
    676000   201012.24    
    677000   202482.09    
    678000   206063.15    
    679000   203682.25    
    680000   201133.97    
    681000   200611.6     
    682000   203071.52    
    683000   198376.13    
    684000   204112.23    
    685000   202302.41    
    686000   196848.9     
    687000   198037.7     
    688000   198083.83    
    689000   206954.8     
    690000   192389.42    
    691000   200463.07    
    692000   202824.97    
    693000   198581.84    
    694000   201842.47    
    695000   205401.71    
    696000   202187.61    
    697000   202028.14    
    698000   203351.9     
    699000   201763.88    
    700000   200894.58    
    701000   201001.36    
    702000   199460.91    
    703000   201811.7     
    704000   195310.23    
    705000   196058.27    
    706000   200497.13    
    707000   202322.43    
    708000   200032.01    
    709000   204869.84    
    710000   201067.49    
    711000   205823.8     
    712000   203873.96    
    713000   199595.5     
    714000   199122.25    
    715000   196301.68    
    716000   197050.61    
    717000   200410.64    
    718000   202738       
    719000   197794.51    
    720000   194353.92    
    721000   197957.8     
    722000   197257.74    
    723000   198509.87    
    724000   198179.61    
    725000   197249.02    
    726000   200532.6     
    727000   199492.07    
    728000   200782.78    
    729000   202657.98    
    730000   206812.06    
    731000   204487.23    
    732000   201648.25    
    733000   202715.9     
    734000   203618.84    
    735000   201179.1     
    736000   198847.21    
    737000   203432.93    
    738000   199987.83    
    739000   196949.82    
    740000   196903.55    
    741000   203256.95    
    742000   197454.27    
    743000   200579.47    
    744000   196412.2     
    745000   197947.19    
    746000   202759.49    
    747000   198039.09    
    748000   200521.48    
    749000   202882.44    
    750000   204105.65    
    751000   200547.08    
    752000   197010.37    
    753000   199446.43    
    754000   200084.95    
    755000   202684.47    
    756000   202061.06    
    757000   203264.1     
    758000   198372.65    
    759000   200240.97    
    760000   199119.79    
    761000   199644.82    
    762000   200856.1     
    763000   197558.97    
    764000   199415.38    
    765000   200795.98    
    766000   201346.8     
    767000   191940.36    
    768000   196744.48    
    769000   198970.08    
    770000   202178.4     
    771000   204712.99    
    772000   198360.58    
    773000   198719.85    
    774000   198524.11    
    775000   199780       
    776000   194703.16    
    777000   192958.09    
    778000   197481.64    
    779000   201793.51    
    780000   202737.21    
    781000   196758.57    
    782000   200798.45    
    783000   200492.61    
    784000   202112.42    
    785000   197476.26    
    786000   201282.51    
    787000   200762.06    
    788000   202351.71    
    789000   200233.04    
    790000   200905.73    
    791000   201801.97    
    792000   203782.07    
    793000   196848.07    
    794000   200691.29    
    795000   199682.95    
    796000   196081.67    
    797000   196335.29    
    798000   196208.88    
    799000   197952.46    
    800000   198352.91    
    801000   201254.81    
    802000   199744.17    
    803000   204829.51    
    804000   195108.59    
    805000   195689.88    
    806000   200247.13    
    807000   203227.36    
    808000   198510.41    
    809000   199694.96    
    810000   200109.16    
    811000   206304.8     
    812000   196892.12    
    813000   202447.32    
    814000   199488.35    
    815000   198745.14    
    816000   202487.48    
    817000   204587.76    
    818000   198666.95    
    819000   201409.79    
    820000   202067.93    
    821000   204907.79    
    822000   200754.13    
    823000   207357.87    
    824000   198879.11    
    825000   194439.9     
    826000   195510.97    
    827000   198908.16    
    828000   195984.91    
    829000   206105.89    
    830000   202537.28    
    831000   198276.4     
    832000   200520.47    
    833000   200132.6     
    834000   199971.89    
    835000   196009.81    
    836000   204559.43    
    837000   197796.62    
    838000   199754.01    
    839000   203481.29    
    840000   197833.36    
    841000   200374.69    
    842000   196558.68    
    843000   197056.35    
    844000   196821.96    
    845000   202777.89    
    846000   202865.94    
    847000   197516.89    
    848000   197718.5     
    849000   198061.28    
    850000   198299.81    
    851000   204203.04    
    852000   196667.43    
    853000   199546       
    854000   197360.89    
    855000   199844.25    
    856000   201689.15    
    857000   198987.11    
    858000   196862.97    
    859000   199022.83    
    860000   199770.27    
    861000   199140.74    
    862000   202596.66    
    863000   204208.82    
    864000   199609.39    
    865000   201631.72    
    866000   197665.82    
    867000   201404.05    
    868000   196712.41    
    869000   198212.44    
    870000   200106.09    
    871000   199526.61    
    872000   196263.29    
    873000   204124.11    
    874000   206009.7     
    875000   199005.02    
    876000   203457.48    
    877000   202707.57    
    878000   198763.44    
    879000   204301.24    
    880000   198992.41    
    881000   200851.27    
    882000   201502.4     
    883000   204040.96    
    884000   200449.11    
    885000   201717.61    
    886000   199357.93    
    887000   204347.23    
    888000   202836.66    
    889000   199114.82    
    890000   195433.11    
    891000   197673.77    
    892000   198990.63    
    893000   203625.12    
    894000   201410.6     
    895000   199286.92    
    896000   200455.9     
    897000   206807.45    
    898000   207049.41    
    899000   197889.93    
    900000   202283.1     
    901000   201376       
    902000   205116.98    
    903000   203733.96    
    904000   202435.74    
    905000   196454.71    
    906000   201229.38    
    907000   197927.97    
    908000   200036.83    
    909000   206509.73    
    910000   200207.78    
    911000   204101.06    
    912000   200292.93    
    913000   199202.01    
    914000   202158.36    
    915000   201083.54    
    916000   194461.16    
    917000   198447.81    
    918000   199557.19    
    919000   198401.42    
    920000   197371.83    
    921000   203293.71    
    922000   199864.99    
    923000   200401.48    
    924000   202688.24    
    925000   199974.2     
    926000   195031.12    
    927000   198224.03    
    928000   195777.14    
    929000   205480.63    
    930000   199283.02    
    931000   198820.59    
    932000   204032.64    
    933000   194620.76    
    934000   196554.74    
    935000   196178.48    
    936000   203973.1     
    937000   202412.49    
    938000   196645.58    
    939000   201630.75    
    940000   202383.78    
    941000   199531.03    
    942000   204750.65    
    943000   203839.06    
    944000   197482.47    
    945000   204066.82    
    946000   203622.73    
    947000   194828.4     
    948000   205777.16    
    949000   194381.39    
    950000   198955.01    
    951000   197436.51    
    952000   199787.9     
    953000   200773.8     
    954000   202735.24    
    955000   198047.21    
    956000   197244.95    
    957000   202096.01    
    958000   197913.47    
    959000   195187.37    
    960000   200921.6     
    961000   195943.21    
    962000   202247.08    
    963000   203037.22    
    964000   205589.39    
    965000   203258.79    
    966000   196869.11    
    967000   199569.07    
    968000   198052.27    
    969000   201634.26    
    970000   199627.82    
    971000   200571.39    
    972000   198824.23    
    973000   196521       
    974000   195859.9     
    975000   195825.19    
    976000   207225.95    
    977000   202453.82    
    978000   201117.25    
    979000   204958.83    
    980000   197261.27    
    981000   202586.76    
    982000   198221.95    
    983000   200229.06    
    984000   200034.36    
    985000   196180.12    
    986000   203656.35    
    987000   198735.76    
    988000   203715.01    
    989000   200713.29    
    990000   195325.59    
    991000   201185.22    
    992000   201836.64    
    993000   200818.39    
    994000   202504.36    
    995000   197471.52    
    996000   200462.22    
    997000   204073.12    
    998000   197516.24    
    999000   202379.66    
   1000000   201890.98    
   1001000   194965.15    
   1002000   201312.8     
   1003000   195536.16    
   1004000   203255.2     
   1005000   198392.3     
   1006000   204040.62    
   1007000   200353.21    
   1008000   202230.34    
   1009000   198154.89    
   1010000   200702.97    
   1011000   203281.35    
   1012000   196113.28    
   1013000   206337.14    
   1014000   203696.87    
   1015000   201193.42    
   1016000   203294.58    
   1017000   205966.61    
   1018000   198193.57    
   1019000   201743.79    
   1020000   200004.41    
   1021000   197430.28    
   1022000   203424.24    
   1023000   199408.22    
   1024000   193287.17    
   1025000   198780.43    
   1026000   200670.53    
   1027000   202543.69    
   1028000   202512.26    
   1029000   203246.13    
   1030000   200831.68    
   1031000   195894.73    
   1032000   202786.34    
   1033000   196946.01    
   1034000   196227.5     
   1035000   204542.54    
   1036000   198577.37    
   1037000   201414.84    
   1038000   203745.85    
   1039000   198934.48    
   1040000   200422.99    
   1041000   201570.8     
   1042000   202077.96    
   1043000   200776.5     
   1044000   199449.42    
   1045000   200785.08    
   1046000   205529.14    
   1047000   198573.66    
   1048000   202572.69    
   1049000   198254.85    
   1050000   202462.1     
   1051000   200510.29    
   1052000   201207.61    
   1053000   198046.77    
   1054000   200857.29    
   1055000   196343.58    
   1056000   201099.86    
   1057000   198922.24    
   1058000   194760.69    
   1059000   201877.93    
   1060000   201460.22    
   1061000   204800.39    
   1062000   201136.07    
   1063000   202777.13    
   1064000   203447.43    
   1065000   199545.02    
   1066000   197419.69    
   1067000   196256.76    
   1068000   200913.83    
   1069000   197324.55    
   1070000   198375.18    
   1071000   196721.75    
   1072000   198550.25    
   1073000   205432.85    
   1074000   201742.16    
   1075000   199466.2     
   1076000   196976.92    
   1077000   199114.51    
   1078000   199180.39    
   1079000   197220.4     
   1080000   198965.63    
   1081000   202189.64    
   1082000   197014.11    
   1083000   198909.37    
   1084000   192313.76    
   1085000   200553.5     
   1086000   198926.05    
   1087000   197228.97    
   1088000   197121.38    
   1089000   198332.84    
   1090000   202958.78    
   1091000   195855.27    
   1092000   197750.73    
   1093000   199252.94    
   1094000   196362.69    
   1095000   199136.05    
   1096000   200031.53    
   1097000   202202.44    
   1098000   199085.79    
   1099000   200406.91    
   1100000   197629.24    
   1101000   199153.8     
   1102000   198861.22    
   1103000   204177.94    
   1104000   203826.09    
   1105000   200553.74    
   1106000   198961.42    
   1107000   197791.35    
   1108000   198115.49    
   1109000   202679.29    
   1110000   200139.5     
   1111000   204106.5     
   1112000   196641.87    
   1113000   201498.94    
   1114000   201010.69    
   1115000   196492.15    
   1116000   200872.09    
   1117000   201733.8     
   1118000   198399.72    
   1119000   207916.48    
   1120000   204492.34    
   1121000   201221.34    
   1122000   205843.72    
   1123000   199201.72    
   1124000   198440.26    
   1125000   201808.69    
   1126000   201388.38    
   1127000   197217.01    
   1128000   204297.51    
   1129000   199156.01    
   1130000   199649.46    
   1131000   196295.28    
   1132000   200773.94    
   1133000   195876.21    
   1134000   198916.91    
   1135000   199557.06    
   1136000   205381.2     
   1137000   202616.79    
   1138000   198362.55    
   1139000   199238.98    
   1140000   199326.69    
   1141000   195069.21    
   1142000   203202.3     
   1143000   200582.89    
   1144000   199862.36    
   1145000   199666.93    
   1146000   200068.22    
   1147000   195465.04    
   1148000   199720.03    
   1149000   197621.7     
   1150000   202203.67    
   1151000   187858.46    
   1152000   199743.7     
   1153000   201519.57    
   1154000   201550       
   1155000   204123.63    
   1156000   202493.03    
   1157000   201434.37    
   1158000   199308.58    
   1159000   202962.75    
   1160000   194855.98    
   1161000   198074.2     
   1162000   192689       
   1163000   199547.66    
   1164000   198170.97    
   1165000   202362.05    
   1166000   203305.49    
   1167000   199787.09    
   1168000   200968.75    
   1169000   202189.07    
   1170000   199077.7     
   1171000   197515.71    
   1172000   200088.86    
   1173000   198883.18    
   1174000   203429.18    
   1175000   200730.98    
   1176000   207721.21    
   1177000   204064.04    
   1178000   197114.88    
   1179000   197601.21    
   1180000   198695.48    
   1181000   203026.49    
   1182000   201290.05    
   1183000   192856.12    
   1184000   199357.49    
   1185000   207233.43    
   1186000   201651.74    
   1187000   200047.2     
   1188000   200502.39    
   1189000   206971.09    
   1190000   201270.58    
   1191000   196071.84    
   1192000   203668.88    
   1193000   200388.53    
   1194000   205064.72    
   1195000   198709.05    
   1196000   199692.25    
   1197000   199419.44    
   1198000   200578.24    
   1199000   197942.78    
   1200000   201500.67    
   1201000   197685.04    
   1202000   198327.76    
   1203000   192310.38    
   1204000   198996.03    
   1205000   200043.39    
   1206000   190346.92    
   1207000   201907.65    
   1208000   199601.06    
   1209000   203813.87    
   1210000   200041.98    
   1211000   201700.51    
   1212000   197741.16    
   1213000   206060.4     
   1214000   204589.32    
   1215000   196618.73    
   1216000   198873.56    
   1217000   201773.06    
   1218000   198602.26    
   1219000   200633.08    
   1220000   200267.22    
   1221000   204336.06    
   1222000   200888.23    
   1223000   194884.9     
   1224000   203295.26    
   1225000   200246.92    
   1226000   199002.12    
   1227000   199112.17    
   1228000   203584.59    
   1229000   198950.83    
   1230000   202767.7     
   1231000   200016.35    
   1232000   199355.83    
   1233000   200352.26    
   1234000   203344.4     
   1235000   198530.3     
   1236000   197932.68    
   1237000   200338.88    
   1238000   199426.1     
   1239000   201638.43    
   1240000   203089.2     
   1241000   197087.79    
   1242000   201525.82    
   1243000   200106.5     
   1244000   201227.47    
   1245000   201429.62    
   1246000   204661.84    
   1247000   202407.04    
   1248000   199497.82    
   1249000   202024.71    
   1250000   201880.07    
   1251000   200866.18    
   1252000   199911.09    
   1253000   203213.6     
   1254000   201321.81    
   1255000   200920.59    
   1256000   199779.38    
   1257000   197109.4     
   1258000   203483.55    
   1259000   200523.8     
   1260000   201447.67    
   1261000   198839.95    
   1262000   200542.38    
   1263000   199879.49    
   1264000   197949.63    
   1265000   197214.56    
   1266000   197238.41    
   1267000   202940.75    
   1268000   205886.71    
   1269000   199797.52    
   1270000   193465.99    
   1271000   199839.07    
   1272000   199282.08    
   1273000   200716.89    
   1274000   200556.48    
   1275000   200570.72    
   1276000   202885.98    
   1277000   199133.76    
   1278000   198892.62    
   1279000   203320.38    
   1280000   203194       
   1281000   195707.66    
   1282000   203665.74    
   1283000   197442.89    
   1284000   201353.65    
   1285000   201778.69    
   1286000   199544.66    
   1287000   198035.32    
   1288000   190935.74    
   1289000   203583.06    
   1290000   200597.32    
   1291000   199239.8     
   1292000   199272.6     
   1293000   204427.82    
   1294000   202624.76    
   1295000   200535.42    
   1296000   202475.08    
   1297000   196063.46    
   1298000   200173.56    
   1299000   205976.93    
   1300000   201254.4     
   1301000   198262.33    
   1302000   201089.85    
   1303000   195535.06    
   1304000   203454.03    
   1305000   203275.61    
   1306000   196280.16    
   1307000   198181.1     
   1308000   202607.05    
   1309000   198152.33    
   1310000   198477.82    
   1311000   203395.95    
   1312000   198821.1     
   1313000   202562.32    
   1314000   198727.37    
   1315000   202107.08    
   1316000   198676.38    
   1317000   197723.65    
   1318000   199219.75    
   1319000   198849.27    
   1320000   206085.72    
   1321000   203890.83    
   1322000   196421.43    
   1323000   200891.15    
   1324000   200207.97    
   1325000   199430.83    
   1326000   203146.64    
   1327000   200498.53    
   1328000   200180.02    
   1329000   199165.17    
   1330000   202659.31    
   1331000   190370.61    
   1332000   202220.05    
   1333000   200459.47    
   1334000   198706.55    
   1335000   198098.14    
   1336000   197227.29    
   1337000   204637.56    
   1338000   199158.68    
   1339000   201919       
   1340000   198566.16    
   1341000   200244.77    
   1342000   203228.57    
   1343000   200669.33    
   1344000   197944.4     
   1345000   195058.53    
   1346000   198945.96    
   1347000   197766.57    
   1348000   197606.56    
   1349000   197435.11    
   1350000   198430.51    
   1351000   207037.22    
   1352000   200567.39    
   1353000   199810.23    
   1354000   200079.14    
   1355000   196475.54    
   1356000   197492.44    
   1357000   200372.85    
   1358000   202279.42    
   1359000   203281.5     
   1360000   197968.95    
   1361000   198542.8     
   1362000   201770.34    
   1363000   200125.17    
   1364000   200290.72    
   1365000   199166.6     
   1366000   199557.68    
   1367000   200883.23    
   1368000   204103.79    
   1369000   196299.15    
   1370000   202733.86    
   1371000   199421.69    
   1372000   200045.27    
   1373000   198957.61    
   1374000   201499.69    
   1375000   195570.54    
   1376000   201565.46    
   1377000   200659.47    
   1378000   195981.61    
   1379000   198492.64    
   1380000   200429.91    
   1381000   199831.92    
   1382000   200870.65    
   1383000   196612.18    
   1384000   201369.13    
   1385000   205441.19    
   1386000   196248.35    
   1387000   198955.31    
   1388000   200699.27    
   1389000   194245.63    
   1390000   195417.3     
   1391000   207138.51    
   1392000   196908.99    
   1393000   198723.55    
   1394000   204917.89    
   1395000   200970.13    
   1396000   200880.61    
   1397000   196697.93    
   1398000   197716.2     
   1399000   195862.97    
   1400000   197576.82    
   1401000   197304.8     
   1402000   200154.5     
   1403000   202410.73    
   1404000   201909.12    
   1405000   196285.58    
   1406000   203250.89    
   1407000   194876.63    
   1408000   201977.94    
   1409000   201911.36    
   1410000   195775.44    
   1411000   200155.03    
   1412000   199707.89    
   1413000   205299.48    
   1414000   198016.62    
   1415000   201427.27    
   1416000   199427       
   1417000   200641.36    
   1418000   201762.09    
   1419000   203735.87    
   1420000   200989.39    
   1421000   204004.64    
   1422000   203186.8     
   1423000   201001.93    
   1424000   203060.18    
   1425000   203590.88    
   1426000   200350.97    
   1427000   200783.04    
   1428000   201764.75    
   1429000   198765.17    
   1430000   197737.41    
   1431000   199621.36    
   1432000   200467.76    
   1433000   206533.86    
   1434000   202602.55    
   1435000   195964.98    
   1436000   201597.13    
   1437000   202278.37    
   1438000   199913.06    
   1439000   203261.78    
   1440000   205719.84    
   1441000   201006.02    
   1442000   202306.09    
   1443000   202219.07    
   1444000   197786.61    
   1445000   202016.63    
   1446000   201139.79    
   1447000   196748.27    
   1448000   201835.69    
   1449000   199680.78    
   1450000   194150.08    
   1451000   205908.21    
   1452000   198472.44    
   1453000   198053.02    
   1454000   195875.57    
   1455000   199661.05    
   1456000   199142.81    
   1457000   199715.38    
   1458000   200743.33    
   1459000   199418.29    
   1460000   199789.22    
   1461000   198379.47    
   1462000   201531.74    
   1463000   195337.65    
   1464000   199073.64    
   1465000   201011.7     
   1466000   200700.55    
   1467000   199672.56    
   1468000   198301.99    
   1469000   202925.51    
   1470000   196937.16    
   1471000   197349.1     
   1472000   195838.32    
   1473000   201758.86    
   1474000   201277.24    
   1475000   204341.43    
   1476000   196374.81    
   1477000   202436.13    
   1478000   200050.4     
   1479000   200296.84    
   1480000   197081.2     
   1481000   199523.54    
   1482000   198721.44    
   1483000   197491.06    
   1484000   199004.92    
   1485000   204356.26    
   1486000   197177.07    
   1487000   198983.73    
   1488000   199492.82    
   1489000   200535.18    
   1490000   198361.27    
   1491000   202367.31    
   1492000   203952.46    
   1493000   203408.77    
   1494000   202737.68    
   1495000   204661.75    
   1496000   201650.67    
   1497000   200714.1     
   1498000   201696.84    
   1499000   196557.15    
   1500000   196191.68    
   1501000   201782.19    
   1502000   199894.43    
   1503000   199754.14    
   1504000   198515.34    
   1505000   199140.98    
   1506000   198240.93    
   1507000   200843.51    
   1508000   199516.45    
   1509000   200162.67    
   1510000   198100.71    
   1511000   205472.61    
   1512000   195668.81    
   1513000   200241.08    
   1514000   198450.52    
   1515000   203838.14    
   1516000   199080.4     
   1517000   202430.35    
   1518000   204018.62    
   1519000   201758.3     
   1520000   201387.12    
   1521000   203866.66    
   1522000   201017.15    
   1523000   200433.09    
   1524000   198994.03    
   1525000   201371.72    
   1526000   197130.57    
   1527000   199136.83    
   1528000   203532.85    
   1529000   202677.97    
   1530000   197721.22    
   1531000   201217.98    
   1532000   198852.12    
   1533000   208346.6     
   1534000   200477.19    
   1535000   197647.74    
   1536000   204010.57    
   1537000   201022.63    
   1538000   200892.5     
   1539000   200433.76    
   1540000   201341.53    
   1541000   199875.3     
   1542000   197438.22    
   1543000   203088.98    
   1544000   196890.43    
   1545000   198059.89    
   1546000   197911.63    
   1547000   203915.03    
   1548000   198582.16    
   1549000   199315.86    
   1550000   199507.91    
   1551000   200096.68    
   1552000   198960.6     
   1553000   197961.17    
   1554000   200583.83    
   1555000   201647.46    
   1556000   203612.57    
   1557000   201694.36    
   1558000   198445.76    
   1559000   199781.82    
   1560000   197886.5     
   1561000   198645.07    
   1562000   194117.85    
   1563000   200841.5     
   1564000   199382.63    
   1565000   200841.06    
   1566000   202399.08    
   1567000   197156.01    
   1568000   201676.78    
   1569000   196212.49    
   1570000   199155.12    
   1571000   198450.44    
   1572000   200705.6     
   1573000   205795.39    
   1574000   201183.7     
   1575000   201012.7     
   1576000   206296.48    
   1577000   202176.75    
   1578000   206387.52    
   1579000   202836.68    
   1580000   196418.85    
   1581000   203577.29    
   1582000   197883.85    
   1583000   198109.45    
   1584000   201069.88    
   1585000   197921.76    
   1586000   202763       
   1587000   197436.77    
   1588000   201103.6     
   1589000   200638.24    
   1590000   198767.07    
   1591000   197799.96    
   1592000   198271.46    
   1593000   194087.44    
   1594000   200589.41    
   1595000   199969.59    
   1596000   202367.08    
   1597000   201924.78    
   1598000   199172.5     
   1599000   202770.39    
   1600000   197471.97    
   1601000   202875.43    
   1602000   204365.02    
   1603000   199309.57    
   1604000   197173.78    
   1605000   201877.98    
   1606000   200036.03    
   1607000   199348.93    
   1608000   203404.72    
   1609000   201662.7     
   1610000   199289.57    
   1611000   201223.34    
   1612000   200666.42    
   1613000   200288.68    
   1614000   201886.2     
   1615000   202194.01    
   1616000   199977.68    
   1617000   199159.77    
   1618000   196292.67    
   1619000   198860.53    
   1620000   199141.32    
   1621000   199193.82    
   1622000   193013.31    
   1623000   200610.35    
   1624000   203295.27    
   1625000   197650.81    
   1626000   199896.2     
   1627000   198960.44    
   1628000   202333.62    
   1629000   200028.96    
   1630000   199045.55    
   1631000   200780.99    
   1632000   199767.94    
   1633000   198883.24    
   1634000   200378.96    
   1635000   202444.73    
   1636000   199347.96    
   1637000   201070.97    
   1638000   198681.49    
   1639000   200385.6     
   1640000   197516.03    
   1641000   204923.01    
   1642000   203970.32    
   1643000   196260.62    
   1644000   198783.46    
   1645000   199155.49    
   1646000   201417.05    
   1647000   202700.7     
   1648000   195530.74    
   1649000   200831.46    
   1650000   202994.22    
   1651000   199500.09    
   1652000   196963.73    
   1653000   203448.6     
   1654000   198860.96    
   1655000   198332.56    
   1656000   202826.97    
   1657000   202913.93    
   1658000   204369.07    
   1659000   200164.73    
   1660000   199486.03    
   1661000   200407       
   1662000   198741.02    
   1663000   199736.03    
   1664000   203915.97    
   1665000   204673.47    
   1666000   204355.94    
   1667000   203530.22    
   1668000   200201.55    
   1669000   197834.6     
   1670000   200857.16    
   1671000   201957.58    
   1672000   198136.62    
   1673000   201532.89    
   1674000   199128.08    
   1675000   206101.64    
   1676000   200967.14    
   1677000   201284.96    
   1678000   202182.92    
   1679000   199479.86    
   1680000   198993.31    
   1681000   203087.23    
   1682000   203490.81    
   1683000   199428.24    
   1684000   197267.76    
   1685000   199452.95    
   1686000   202741.36    
   1687000   196197.95    
   1688000   200633.42    
   1689000   199891.11    
   1690000   201190.6     
   1691000   202660.07    
   1692000   197069.39    
   1693000   199097.02    
   1694000   198198.91    
   1695000   195364.17    
   1696000   205365.45    
   1697000   194613.11    
   1698000   205527.51    
   1699000   202695.6     
   1700000   199206.95    
   1701000   203331.06    
   1702000   206163.72    
   1703000   198303.39    
   1704000   205794.14    
   1705000   194889.34    
   1706000   198950.75    
   1707000   203155.2     
   1708000   201622.75    
   1709000   196858.79    
   1710000   200563.67    
   1711000   202356.02    
   1712000   202950.57    
   1713000   199387.32    
   1714000   199107.85    
   1715000   195188.78    
   1716000   198563.7     
   1717000   196198.71    
   1718000   205898.7     
   1719000   200631.31    
   1720000   194150.55    
   1721000   198794.05    
   1722000   202397.04    
   1723000   200118.48    
   1724000   196820.96    
   1725000   196959.03    
   1726000   197685.42    
   1727000   202568.35    
   1728000   197334.7     
   1729000   201938.26    
   1730000   196830.69    
   1731000   204392.75    
   1732000   201906.52    
   1733000   198527.14    
   1734000   198071.49    
   1735000   199481.15    
   1736000   202272.89    
   1737000   198357.65    
   1738000   197888.28    
   1739000   201350.22    
   1740000   206252.59    
   1741000   199011.03    
   1742000   196903.76    
   1743000   203666.67    
   1744000   201290.94    
   1745000   197040.11    
   1746000   198603.6     
   1747000   196305.98    
   1748000   200488.73    
   1749000   198773.42    
   1750000   197589.13    
   1751000   200594.99    
   1752000   198482.61    
   1753000   200503.12    
   1754000   195965.09    
   1755000   197658.29    
   1756000   198959.67    
   1757000   197815.88    
   1758000   201401.55    
   1759000   199402.16    
   1760000   199618.44    
   1761000   199139.06    
   1762000   198269.76    
   1763000   204653.64    
   1764000   199457.28    
   1765000   205223.44    
   1766000   198676.59    
   1767000   201724.04    
   1768000   206346.34    
   1769000   202418.19    
   1770000   201018.17    
   1771000   200139.44    
   1772000   199344.22    
   1773000   203170.78    
   1774000   198274.03    
   1775000   199411.44    
   1776000   202207.37    
   1777000   205389.87    
   1778000   201936.23    
   1779000   202593.18    
   1780000   203427.98    
   1781000   206962.15    
   1782000   201053.96    
   1783000   203760.57    
   1784000   193337.75    
   1785000   200125.86    
   1786000   195981.03    
   1787000   196850       
   1788000   200743.08    
   1789000   200071.85    
   1790000   198705.61    
   1791000   197721.84    
   1792000   196052.74    
   1793000   202745.17    
   1794000   202703.92    
   1795000   199255.67    
   1796000   198513.44    
   1797000   197801.66    
   1798000   202865.26    
   1799000   200624.43    
   1800000   199094.95    
   1801000   198997.37    
   1802000   202011.51    
   1803000   199955.2     
   1804000   201601.56    
   1805000   200990.07    
   1806000   202548.96    
   1807000   202602.17    
   1808000   200600.19    
   1809000   197519.3     
   1810000   201065.25    
   1811000   198181.64    
   1812000   196199.21    
   1813000   202154.17    
   1814000   204162.7     
   1815000   208489.41    
   1816000   196110.38    
   1817000   199938.8     
   1818000   201389.71    
   1819000   198046.73    
   1820000   199951.56    
   1821000   198581.38    
   1822000   194391.29    
   1823000   202029.36    
   1824000   200551.57    
   1825000   207084.2     
   1826000   206819.46    
   1827000   199996.1     
   1828000   201847.03    
   1829000   199495.32    
   1830000   204275.52    
   1831000   200205.39    
   1832000   203934.76    
   1833000   202195.07    
   1834000   198231.07    
   1835000   200085.42    
   1836000   198655.81    
   1837000   199284.9     
   1838000   202718.48    
   1839000   199734.67    
   1840000   203820.57    
   1841000   194488.78    
   1842000   202771.95    
   1843000   197230.84    
   1844000   197677.88    
   1845000   202269.37    
   1846000   201592.31    
   1847000   197788.16    
   1848000   201707.17    
   1849000   202483.75    
   1850000   200778.73    
   1851000   199759.55    
   1852000   200387.79    
   1853000   198066.88    
   1854000   199575.55    
   1855000   200646.25    
   1856000   204674.08    
   1857000   199911.47    
   1858000   200186.42    
   1859000   196664.82    
   1860000   201821.44    
   1861000   198826.92    
   1862000   197046.03    
   1863000   199476.02    
   1864000   200759.69    
   1865000   194535.03    
   1866000   201333.74    
   1867000   199322.28    
   1868000   197851.24    
   1869000   199743.69    
   1870000   201213.31    
   1871000   199827.82    
   1872000   199792.97    
   1873000   199624.16    
   1874000   198347.67    
   1875000   191950.7     
   1876000   196690.54    
   1877000   204076.32    
   1878000   203927.25    
   1879000   201863.37    
   1880000   193814.75    
   1881000   199401.16    
   1882000   202274.81    
   1883000   198624.52    
   1884000   195364.37    
   1885000   199148.73    
   1886000   197152.92    
   1887000   199425.75    
   1888000   198980.83    
   1889000   203452.51    
   1890000   203314.79    
   1891000   201866       
   1892000   200816.77    
   1893000   204510.32    
   1894000   198024.58    
   1895000   202471.5     
   1896000   201928.68    
   1897000   203189.6     
   1898000   199953.01    
   1899000   199542.06    
   1900000   196375.75    
   1901000   203832.54    
   1902000   203216.28    
   1903000   198280.44    
   1904000   199510.6     
   1905000   199728.69    
   1906000   199725.5     
   1907000   199064.31    
   1908000   196081.45    
   1909000   200084.79    
   1910000   196996.75    
   1911000   205005.61    
   1912000   204708.93    
   1913000   199124.12    
   1914000   202379.72    
   1915000   198262.15    
   1916000   199137.95    
   1917000   199421.32    
   1918000   203216.75    
   1919000   196815.02    
   1920000   195117.65    
   1921000   194283.43    
   1922000   200091.64    
   1923000   200509.27    
   1924000   198909.35    
   1925000   198320.44    
   1926000   201678.89    
   1927000   197593.14    
   1928000   197392.25    
   1929000   195660.26    
   1930000   200487.99    
   1931000   199472.52    
   1932000   198427.21    
   1933000   200013.19    
   1934000   198909.25    
   1935000   201143.59    
   1936000   201779.31    
   1937000   198747.08    
   1938000   202400.92    
   1939000   203568       
   1940000   201215.58    
   1941000   196948.24    
   1942000   198980.28    
   1943000   201756.01    
   1944000   201250.97    
   1945000   197020.26    
   1946000   195542.87    
   1947000   197052.72    
   1948000   205545.66    
   1949000   200628.02    
   1950000   199648.07    
   1951000   196051.77    
   1952000   201891.1     
   1953000   197217.16    
   1954000   199341.63    
   1955000   201176.5     
   1956000   197355.24    
   1957000   201838.69    
   1958000   199792.21    
   1959000   203049.93    
   1960000   198855.6     
   1961000   204493.58    
   1962000   205200.89    
   1963000   204955.93    
   1964000   200772.1     
   1965000   196075.44    
   1966000   203321.55    
   1967000   199242.83    
   1968000   194882.64    
   1969000   199417.08    
   1970000   204071.5     
   1971000   203054.27    
   1972000   196944.52    
   1973000   200515.84    
   1974000   200336.92    
   1975000   198171.79    
   1976000   200202.75    
   1977000   202953.91    
   1978000   200977.3     
   1979000   195762.44    
   1980000   200526.26    
   1981000   196808.61    
   1982000   199382.41    
   1983000   196427.35    
   1984000   201933.06    
   1985000   202005.9     
   1986000   198802.66    
   1987000   198069.18    
   1988000   197296.98    
   1989000   199291.39    
   1990000   203252.28    
   1991000   197007.67    
   1992000   203599.8     
   1993000   201908.89    
   1994000   202636.03    
   1995000   200683.88    
   1996000   199614.75    
   1997000   199241.06    
   1998000   199905.26    
   1999000   203297.36    
   2000000   194084.77    
   2001000   204216.97    
   2002000   198626.54    
   2003000   205622.88    
   2004000   199290.04    
   2005000   200306.37    
   2006000   197781.13    
   2007000   200945.99    
   2008000   203463.38    
   2009000   203697.02    
   2010000   202761.22    
   2011000   200603.72    
   2012000   200319.28    
   2013000   195185.07    
   2014000   201388.94    
   2015000   203370.25    
   2016000   199092.55    
   2017000   200804.96    
   2018000   201938.44    
   2019000   198740.79    
   2020000   204801.04    
   2021000   197569.16    
   2022000   200338.04    
   2023000   205061.68    
   2024000   195458.2     
   2025000   203539.76    
   2026000   198503.69    
   2027000   200763.96    
   2028000   201416.31    
   2029000   205042.9     
   2030000   201792.75    
   2031000   199411.66    
   2032000   199137.25    
   2033000   203638.24    
   2034000   197680.86    
   2035000   195702.12    
   2036000   200294.88    
   2037000   201398.97    
   2038000   200963.53    
   2039000   199103.74    
   2040000   199826.39    
   2041000   203543.16    
   2042000   203205.41    
   2043000   197772.12    
   2044000   204940.2     
   2045000   202966.59    
   2046000   203299.9     
   2047000   200537.17    
   2048000   201475.47    
   2049000   200955.21    
   2050000   202776.83    
   2051000   200829.7     
   2052000   198667.9     
   2053000   197676.33    
   2054000   198749.96    
   2055000   200636.56    
   2056000   197187.43    
   2057000   203270.69    
   2058000   204133.91    
   2059000   203456.29    
   2060000   200606.46    
   2061000   202981.25    
   2062000   200943.84    
   2063000   195402.61    
   2064000   202135.55    
   2065000   207836.26    
   2066000   198510.22    
   2067000   200673.54    
   2068000   201019.84    
   2069000   197214.3     
   2070000   204824.61    
   2071000   196004.77    
   2072000   197646.64    
   2073000   196686.63    
   2074000   200731.56    
   2075000   200943.76    
   2076000   194718.2     
   2077000   201921.47    
   2078000   201039.5     
   2079000   200513.15    
   2080000   197166.98    
   2081000   198349.66    
   2082000   201048.61    
   2083000   202188.9     
   2084000   193700.22    
   2085000   199432.1     
   2086000   197685.51    
   2087000   202352.11    
   2088000   196793.76    
   2089000   201956.17    
   2090000   199321.93    
   2091000   196504.63    
   2092000   201026.82    
   2093000   197321.76    
   2094000   200683.29    
   2095000   201373.27    
   2096000   199736.8     
   2097000   199220.66    
   2098000   203819.18    
   2099000   200214.84    
   2100000   201198.14    
   2101000   199583.66    
   2102000   193960.87    
   2103000   199518.91    
   2104000   199037.06    
   2105000   199964.07    
   2106000   198859.85    
   2107000   204308.1     
   2108000   197931.21    
   2109000   200663.64    
   2110000   194918.39    
   2111000   205773.1     
   2112000   202751.91    
   2113000   199431.53    
   2114000   199639.78    
   2115000   197677.89    
   2116000   198950.94    
   2117000   202210.95    
   2118000   199674.46    
   2119000   198082.34    
   2120000   202355.08    
   2121000   204108.51    
   2122000   201112.31    
   2123000   202361.66    
   2124000   198758.57    
   2125000   203362.53    
   2126000   198827.52    
   2127000   196673.31    
   2128000   201174.33    
   2129000   204289.8     
   2130000   197958.48    
   2131000   200400.5     
   2132000   205100.29    
   2133000   205763.95    
   2134000   199853.87    
   2135000   194430.68    
   2136000   206465.35    
   2137000   200420.48    
   2138000   203659.43    
   2139000   200169.45    
   2140000   199390.59    
   2141000   199063.34    
   2142000   197426.49    
   2143000   201803.2     
   2144000   200278.1     
   2145000   196560.58    
   2146000   195982.87    
   2147000   196041.82    
   2148000   202521.89    
   2149000   201188.76    
   2150000   198964.06    
   2151000   200327.58    
   2152000   200227.98    
   2153000   201088.19    
   2154000   195622.38    
   2155000   196572.19    
   2156000   201259.07    
   2157000   196791.12    
   2158000   200109.37    
   2159000   195363.81    
   2160000   195579.69    
   2161000   197033.17    
   2162000   201432.63    
   2163000   196758.66    
   2164000   194287.02    
   2165000   194758.03    
   2166000   199194.63    
   2167000   195778.58    
   2168000   202035.88    
   2169000   201780.99    
   2170000   199411.18    
   2171000   199421.62    
   2172000   201722.97    
   2173000   197399.7     
   2174000   203086.63    
   2175000   200649.02    
   2176000   200803.05    
   2177000   196245.75    
   2178000   202290.58    
   2179000   194247.87    
   2180000   199452.79    
   2181000   201071.82    
   2182000   200903.41    
   2183000   204197.64    
   2184000   201329.21    
   2185000   200636.79    
   2186000   199546.19    
   2187000   197846.79    
   2188000   198214.22    
   2189000   202668.94    
   2190000   197543.09    
   2191000   201830.38    
   2192000   196029.91    
   2193000   196138.73    
   2194000   198376.42    
   2195000   203778.79    
   2196000   200290.81    
   2197000   197880.86    
   2198000   203705.32    
   2199000   199299.66    
   2200000   202444.84    
   2201000   204130.17    
   2202000   198536.07    
   2203000   200591.09    
   2204000   198312.17    
   2205000   199442.53    
   2206000   201394.27    
   2207000   199108.08    
   2208000   199800.06    
   2209000   201141.05    
   2210000   199962.83    
   2211000   202031.62    
   2212000   195693.59    
   2213000   208298.74    
   2214000   193875.78    
   2215000   200544.01    
   2216000   197395.24    
   2217000   192928.46    
   2218000   205668.76    
   2219000   203204.14    
   2220000   206716.16    
   2221000   202005.22    
   2222000   200294.33    
   2223000   201398.11    
   2224000   198229.85    
   2225000   199688.59    
   2226000   201920.98    
   2227000   194853.42    
   2228000   202423.65    
   2229000   200465.94    
   2230000   197526.96    
   2231000   199735.26    
   2232000   206570.64    
   2233000   204655.11    
   2234000   197141.17    
   2235000   199457.64    
   2236000   198819.07    
   2237000   203733.97    
   2238000   202018.62    
   2239000   198583.63    
   2240000   201414.92    
   2241000   196174.11    
   2242000   200473.26    
   2243000   198741.71    
   2244000   196576.7     
   2245000   197969.65    
   2246000   201455.79    
   2247000   199038.4     
   2248000   200350.19    
   2249000   205305.98    
   2250000   196097.24    
   2251000   200322.37    
   2252000   200520.51    
   2253000   204215.07    
   2254000   207154.56    
   2255000   197528.51    
   2256000   201269.41    
   2257000   198284.45    
   2258000   198187.08    
   2259000   207169.36    
   2260000   199038.32    
   2261000   196957.7     
   2262000   196941.95    
   2263000   200809.01    
   2264000   198224.21    
   2265000   198577.49    
   2266000   203519.35    
   2267000   199718.72    
   2268000   199486.64    
   2269000   201766.01    
   2270000   195635.58    
   2271000   198217.85    
   2272000   199304.97    
   2273000   197494       
   2274000   204628.53    
   2275000   196229.01    
   2276000   197033.67    
   2277000   200705.43    
   2278000   201456.52    
   2279000   201942.19    
   2280000   201173.73    
   2281000   195922.3     
   2282000   200098.03    
   2283000   203434.19    
   2284000   199831.48    
   2285000   199640.86    
   2286000   201671.63    
   2287000   198832.13    
   2288000   199476.04    
   2289000   202982.38    
   2290000   199991.24    
   2291000   195061.79    
   2292000   193872.5     
   2293000   201884.94    
   2294000   201232.8     
   2295000   202314.24    
   2296000   197338.73    
   2297000   204174.11    
   2298000   194736.58    
   2299000   197444.46    
   2300000   202358.94    
   2301000   200653.04    
   2302000   201360.53    
   2303000   201624.08    
   2304000   205521.52    
   2305000   199285.46    
   2306000   197377.17    
   2307000   200228.54    
   2308000   200346.66    
   2309000   198137.6     
   2310000   194641.24    
   2311000   198089.52    
   2312000   207478.25    
   2313000   208967.71    
   2314000   200395.67    
   2315000   196088.2     
   2316000   196817.01    
   2317000   200955.34    
   2318000   199840.68    
   2319000   198676.52    
   2320000   200817.26    
   2321000   201704       
   2322000   201495.6     
   2323000   202664.68    
   2324000   199878.75    
   2325000   200429.16    
   2326000   195178.65    
   2327000   204551.05    
   2328000   194253.86    
   2329000   199622.14    
   2330000   204257.13    
   2331000   199861.46    
   2332000   203098.91    
   2333000   196717.23    
   2334000   201013.61    
   2335000   201903.83    
   2336000   200631.21    
   2337000   198145.45    
   2338000   200969.12    
   2339000   199388.34    
   2340000   201182.88    
   2341000   195758.6     
   2342000   202354.46    
   2343000   194487.24    
   2344000   200704.12    
   2345000   202301.48    
   2346000   205494.7     
   2347000   201325.37    
   2348000   201041.52    
   2349000   202890.46    
   2350000   200937.97    
   2351000   200969.3     
   2352000   196619.53    
   2353000   195885.27    
   2354000   200627.37    
   2355000   198359.92    
   2356000   199939.8     
   2357000   201501.02    
   2358000   200366.35    
   2359000   196282.65    
   2360000   200153.7     
   2361000   196317.28    
   2362000   201755.6     
   2363000   194995.26    
   2364000   200281.99    
   2365000   196009.58    
   2366000   197889.11    
   2367000   202170.11    
   2368000   199802.64    
   2369000   198401.61    
   2370000   198814.86    
   2371000   201979.81    
   2372000   202498.17    
   2373000   200517.9     
   2374000   196644.15    
   2375000   201907.89    
   2376000   206356.84    
   2377000   200827.58    
   2378000   199264.58    
   2379000   203064.5     
   2380000   201651.48    
   2381000   200932.86    
   2382000   203835.07    
   2383000   198083.72    
   2384000   199757.2     
   2385000   199214.08    
   2386000   199458.64    
   2387000   201207.06    
   2388000   204334.46    
   2389000   197569.1     
   2390000   198637.2     
   2391000   202721.02    
   2392000   198063.59    
   2393000   196841.64    
   2394000   201208.16    
   2395000   202390.25    
   2396000   201186.73    
   2397000   204842.59    
   2398000   198896.42    
   2399000   197141.66    
   2400000   197314.25    
   2401000   200046.01    
   2402000   196303.24    
   2403000   203885.33    
   2404000   200102.71    
   2405000   197932.39    
   2406000   196422.26    
   2407000   199766.14    
   2408000   199028.83    
   2409000   203813.69    
   2410000   195692.63    
   2411000   202217.31    
   2412000   199397.64    
   2413000   202042.44    
   2414000   201075.13    
   2415000   196424.74    
   2416000   195691.85    
   2417000   200344.7     
   2418000   199997.85    
   2419000   198288.92    
   2420000   201452.82    
   2421000   198071.56    
   2422000   197523.13    
   2423000   198891.51    
   2424000   201105.5     
   2425000   202121.62    
   2426000   201806.29    
   2427000   203620.08    
   2428000   196447.31    
   2429000   204133.36    
   2430000   198688.72    
   2431000   197023       
   2432000   192055.59    
   2433000   200269.41    
   2434000   200475.06    
   2435000   198251.56    
   2436000   200184.94    
   2437000   200268.84    
   2438000   201212.8     
   2439000   202222.9     
   2440000   202953.63    
   2441000   198749.63    
   2442000   197489.47    
   2443000   200767.98    
   2444000   200890.53    
   2445000   204981.99    
   2446000   195286.23    
   2447000   199911.5     
   2448000   200629.92    
   2449000   203961.44    
   2450000   206611.48    
   2451000   198877.51    
   2452000   203450       
   2453000   197190.75    
   2454000   201691.04    
   2455000   202746.08    
   2456000   199021.21    
   2457000   198477.78    
   2458000   205536.35    
   2459000   202839.45    
   2460000   204474.52    
   2461000   203576.23    
   2462000   199165.02    
   2463000   199173.49    
   2464000   198245.93    
   2465000   201326.98    
   2466000   199142.1     
   2467000   198804.97    
   2468000   204013.86    
   2469000   201693.21    
   2470000   201291.47    
   2471000   205538.34    
   2472000   204600.08    
   2473000   198951.93    
   2474000   197419.99    
   2475000   197166.49    
   2476000   198630.42    
   2477000   197625.48    
   2478000   201836.58    
   2479000   196779.35    
   2480000   198122.53    
   2481000   203092.76    
   2482000   196920.47    
   2483000   203150.95    
   2484000   194618.45    
   2485000   195223.28    
   2486000   199207.23    
   2487000   201259.37    
   2488000   202652.55    
   2489000   201892.05    
   2490000   200468.51    
   2491000   198277.68    
   2492000   200868.14    
   2493000   202848.92    
   2494000   200335.19    
   2495000   200593.01    
   2496000   201475.37    
   2497000   206030.65    
   2498000   197549.85    
   2499000   199362.67    
   2500000   201517.51    
   2501000   200137.33    
   2502000   194386.14    
   2503000   195934.7     
   2504000   196081.26    
   2505000   196146.37    
   2506000   202003.49    
   2507000   196236.05    
   2508000   200950.33    
   2509000   197163.86    
   2510000   200850.21    
   2511000   195989.47    
   2512000   198427.46    
   2513000   197745.35    
   2514000   201659.08    
   2515000   204624.81    
   2516000   199597.28    
   2517000   199701.47    
   2518000   199632.28    
   2519000   201418.31    
   2520000   202532.26    
   2521000   198117.79    
   2522000   202304.25    
   2523000   201160.34    
   2524000   196532.12    
   2525000   197931.1     
   2526000   193785.04    
   2527000   201469.41    
   2528000   198425.48    
   2529000   196729.87    
   2530000   201241.56    
   2531000   200602.49    
   2532000   201424.6     
   2533000   200104.18    
   2534000   199687.04    
   2535000   197649.3     
   2536000   204625.44    
   2537000   205697.54    
   2538000   198757.83    
   2539000   200370.98    
   2540000   207691.97    
   2541000   202427.96    
   2542000   199787.95    
   2543000   200667.58    
   2544000   198029.59    
   2545000   201769.22    
   2546000   201344.14    
   2547000   204576.94    
   2548000   204054.97    
   2549000   199627.62    
   2550000   203012.59    
   2551000   195889.38    
   2552000   202307.49    
   2553000   207798.18    
   2554000   193342.26    
   2555000   198264.35    
   2556000   201368.5     
   2557000   195772.27    
   2558000   194262       
   2559000   193863.47    
   2560000   198102.97    
   2561000   197661.46    
   2562000   197785.06    
   2563000   200238.6     
   2564000   200490.5     
   2565000   195284.63    
   2566000   201384.01    
   2567000   200676.63    
   2568000   196156.42    
   2569000   200514.97    
   2570000   198076.8     
   2571000   198288.5     
   2572000   199214.41    
   2573000   202293.56    
   2574000   202731.1     
   2575000   196651.26    
   2576000   200336.2     
   2577000   204316.11    
   2578000   200293.04    
   2579000   197703.99    
   2580000   197289.57    
   2581000   196961.65    
   2582000   196316.22    
   2583000   203595.36    
   2584000   197764.44    
   2585000   196508.88    
   2586000   199173.53    
   2587000   200349.51    
   2588000   198529.56    
   2589000   198910.86    
   2590000   198271.33    
   2591000   199657.3     
   2592000   198979.15    
   2593000   206111.39    
   2594000   197064.92    
   2595000   204208.89    
   2596000   201896.03    
   2597000   197010       
   2598000   197560.54    
   2599000   194124.14    
   2600000   200756.65    
   2601000   196719.26    
   2602000   204217.5     
   2603000   195296.42    
   2604000   203450.83    
   2605000   202813.37    
   2606000   198189.23    
   2607000   202177.32    
   2608000   201692.36    
   2609000   202377.91    
   2610000   196757.39    
   2611000   199682.91    
   2612000   198073.84    
   2613000   196312.32    
   2614000   198121.94    
   2615000   199323.3     
   2616000   200492.77    
   2617000   199130.65    
   2618000   200269.31    
   2619000   195697.75    
   2620000   196871.17    
   2621000   197913.73    
   2622000   208437.37    
   2623000   200872.97    
   2624000   193846.15    
   2625000   199121.96    
   2626000   204616.05    
   2627000   199427.36    
   2628000   203907.91    
   2629000   202040.91    
   2630000   195290.39    
   2631000   195792.95    
   2632000   200090.37    
   2633000   196019.6     
   2634000   199899.45    
   2635000   205209.92    
   2636000   199025.45    
   2637000   202321.81    
   2638000   200674.35    
   2639000   204067.04    
   2640000   203004.63    
   2641000   202265.57    
   2642000   193092.34    
   2643000   201415.88    
   2644000   193233.62    
   2645000   203536.48    
   2646000   197868.98    
   2647000   203725.74    
   2648000   202633.14    
   2649000   194598.54    
   2650000   199158.79    
   2651000   199755.63    
   2652000   203952.98    
   2653000   200173.86    
   2654000   200130.33    
   2655000   200222.09    
   2656000   201460.98    
   2657000   197055.3     
   2658000   198634.95    
   2659000   198332.06    
   2660000   201269.87    
   2661000   201038.46    
   2662000   200066.83    
   2663000   199478.44    
   2664000   206937.39    
   2665000   201991.53    
   2666000   198429.51    
   2667000   202180.73    
   2668000   200436.01    
   2669000   196807.6     
   2670000   200095.53    
   2671000   198382.1     
   2672000   199311.44    
   2673000   204652.13    
   2674000   201960.23    
   2675000   201387.62    
   2676000   203236.17    
   2677000   200687.72    
   2678000   197582.38    
   2679000   200833.46    
   2680000   194453.51    
   2681000   202164.35    
   2682000   196507.17    
   2683000   200687.71    
   2684000   200464.55    
   2685000   206471.52    
   2686000   198409.66    
   2687000   200183.21    
   2688000   197127.67    
   2689000   200871.24    
   2690000   200245.51    
   2691000   206824.74    
   2692000   204673.82    
   2693000   196245.77    
   2694000   198387.29    
   2695000   198953.94    
   2696000   198195.02    
   2697000   200924.95    
   2698000   201769.89    
   2699000   198742.16    
   2700000   200076.7     
   2701000   200517.11    
   2702000   207113.45    
   2703000   199992.62    
   2704000   200168.31    
   2705000   195969.72    
   2706000   200423.48    
   2707000   198497.86    
   2708000   201833.41    
   2709000   198988.01    
   2710000   201919.7     
   2711000   200336.48    
   2712000   200070.93    
   2713000   205035.53    
   2714000   203472.34    
   2715000   200211.28    
   2716000   199660.07    
   2717000   198971.1     
   2718000   197660.85    
   2719000   196500.47    
   2720000   200021.4     
   2721000   198743.2     
   2722000   192876.8     
   2723000   197703.48    
   2724000   194070.96    
   2725000   197871.58    
   2726000   198131.6     
   2727000   202756.66    
   2728000   202318.69    
   2729000   197641.41    
   2730000   201481.94    
   2731000   197094.07    
   2732000   201491.89    
   2733000   199411.44    
   2734000   199974.44    
   2735000   200781.99    
   2736000   194237.14    
   2737000   196004.36    
   2738000   202839.29    
   2739000   200942.04    
   2740000   195272.88    
   2741000   198793.77    
   2742000   197705.58    
   2743000   202284.99    
   2744000   196850.73    
   2745000   202019.99    
   2746000   202148.5     
   2747000   199390.34    
   2748000   197893.47    
   2749000   198913.2     
   2750000   201439.54    
   2751000   201512.88    
   2752000   199884.3     
   2753000   202771.9     
   2754000   199714.82    
   2755000   198229.65    
   2756000   199038.34    
   2757000   204862.23    
   2758000   203199.58    
   2759000   198367.55    
   2760000   201484.55    
   2761000   199976.36    
   2762000   198628.42    
   2763000   201510.01    
   2764000   197819.04    
   2765000   200234.19    
   2766000   197473.65    
   2767000   196917.76    
   2768000   197271.12    
   2769000   203652.99    
   2770000   200422.78    
   2771000   199091.03    
   2772000   197755.88    
   2773000   201396.95    
   2774000   197924.66    
   2775000   202386.38    
   2776000   197622.27    
   2777000   201897.31    
   2778000   198633.68    
   2779000   197002.58    
   2780000   203462.49    
   2781000   203055.28    
   2782000   202381.17    
   2783000   200916.93    
   2784000   200220.47    
   2785000   195078.91    
   2786000   200074.06    
   2787000   200709       
   2788000   196943.22    
   2789000   203076.85    
   2790000   202624.13    
   2791000   199535.39    
   2792000   200962.48    
   2793000   200549.64    
   2794000   198581.29    
   2795000   197843.57    
   2796000   203792.59    
   2797000   199862.67    
   2798000   195896.57    
   2799000   209573.32    
   2800000   202633.41    
   2801000   201345.01    
   2802000   200914.33    
   2803000   195990.7     
   2804000   200300.44    
   2805000   200094.06    
   2806000   193897.55    
   2807000   199264.03    
   2808000   201196.82    
   2809000   194923.49    
   2810000   198350.75    
   2811000   196824.33    
   2812000   200001.29    
   2813000   195158.88    
   2814000   202366.28    
   2815000   205939.93    
   2816000   199471.59    
   2817000   193346.39    
   2818000   203841.66    
   2819000   207295.52    
   2820000   201450.82    
   2821000   203305.74    
   2822000   203550.97    
   2823000   199494.29    
   2824000   199093.2     
   2825000   201922.15    
   2826000   198141.83    
   2827000   204995.72    
   2828000   204496.64    
   2829000   205333.63    
   2830000   196121.27    
   2831000   203674       
   2832000   204382.42    
   2833000   202864.22    
   2834000   200438.89    
   2835000   196132.66    
   2836000   201549.25    
   2837000   199433.03    
   2838000   203096.49    
   2839000   206038.88    
   2840000   197976.16    
   2841000   201255.53    
   2842000   200709.79    
   2843000   195482.08    
   2844000   206275.88    
   2845000   200779.76    
   2846000   198217.24    
   2847000   198047.87    
   2848000   199181       
   2849000   197873.63    
   2850000   201109.52    
   2851000   196604.53    
   2852000   203321.09    
   2853000   206745.16    
   2854000   198736.36    
   2855000   198491.36    
   2856000   201920.07    
   2857000   195146.94    
   2858000   205882.25    
   2859000   201869.76    
   2860000   198647.09    
   2861000   200919.07    
   2862000   192861.87    
   2863000   198146.26    
   2864000   206202.39    
   2865000   196761.41    
   2866000   197558.2     
   2867000   199069.38    
   2868000   203279.43    
   2869000   199907.83    
   2870000   200548.11    
   2871000   199810.28    
   2872000   197197.13    
   2873000   200276.56    
   2874000   204479.03    
   2875000   203079       
   2876000   204825.49    
   2877000   196112.86    
   2878000   201372.99    
   2879000   201781.17    
   2880000   199759.37    
   2881000   198984.07    
   2882000   199148.68    
   2883000   200667.72    
   2884000   198868.05    
   2885000   196008.99    
   2886000   195513.64    
   2887000   199476.71    
[...]
   4302000   199809.24    
   4303000   197791.67    
   4304000   201175.12    
   4305000   197458.64    
   4306000   202173.19    
   4307000   196923.95    
   4308000   200290.25    
   4309000   198473.3     
   4310000   205113.49    
   4311000   204098.66    
   4312000   201784.37    
   4313000   198395.2     
   4314000   196063.65    
   4315000   201846.39    
   4316000   195867.83    
   4317000   194243.25    
   4318000   198625.76    
   4319000   203035.55    
   4320000   197580.57    
   4321000   200303.11    
   4322000   202775.79    
   4323000   201002.66    
   4324000   199038.06    
   4325000   200991.17    
   4326000   198301.5     
   4327000   201918.18    
   4328000   201123.33    
   4329000   198180.56    
   4330000   198062.83    
   4331000   203622.8     
   4332000   201688.29    
   4333000   199498.66    
   4334000   198296.01    
   4335000   194706.2     
   4336000   197922.11    
   4337000   198089.01    
   4338000   198985.2     
   4339000   200933.13    
   4340000   201065.53    
   4341000   199782.81    
   4342000   198504.47    
   4343000   197330.34    
   4344000   201562.59    
   4345000   197780.22    
   4346000   200520.34    
   4347000   198263.36    
   4348000   203174.55    
   4349000   196820.22    
   4350000   202404.14    
   4351000   196396.58    
   4352000   201337.62    
   4353000   198998.4     
   4354000   210111.83    
   4355000   196387.64    
   4356000   201624.74    
   4357000   202465.16    
   4358000   197714.92    
   4359000   192609.8     
   4360000   197943.87    
   4361000   199126.63    
   4362000   200594.75    
   4363000   196223.67    
   4364000   199331.46    
   4365000   203224.11    
   4366000   197013.44    
   4367000   199223.61    
   4368000   200634.79    
   4369000   203460.41    
   4370000   194909.33    
   4371000   201685.94    
   4372000   204411.33    
   4373000   197740.52    
   4374000   200553.18    
   4375000   199694.06    
   4376000   200224.51    
   4377000   201119.33    
   4378000   200312.28    
   4379000   194977.97    
   4380000   199609.49    
   4381000   200076       
   4382000   203669.73    
   4383000   195868.09    
   4384000   198594.82    
   4385000   199129.15    
   4386000   195207.86    
   4387000   203078.05    
   4388000   200619.35    
   4389000   200201.04    
   4390000   203356.79    
   4391000   201451.84    
   4392000   200522.68    
   4393000   199238.05    
   4394000   195954.58    
   4395000   203399.63    
   4396000   195423.45    
   4397000   203430.6     
   4398000   199005.63    
   4399000   206988.71    
   4400000   201740.18    
   4401000   201957.24    
   4402000   200261.93    
   4403000   200442.3     
   4404000   199669.09    
   4405000   199191.02    
   4406000   198330.89    
   4407000   197223.09    
   4408000   202534.94    
   4409000   204010.13    
   4410000   196344.61    
   4411000   199525.01    
   4412000   201521.86    
   4413000   194072.63    
   4414000   200637.45    
   4415000   199776.69    
   4416000   201566.26    
   4417000   203992.31    
   4418000   200369.15    
   4419000   200713.07    
   4420000   201767.71    
   4421000   200079.92    
   4422000   200049.81    
   4423000   207184.66    
   4424000   198844.72    
   4425000   202659.68    
   4426000   203820.89    
   4427000   197516.51    
   4428000   197982       
   4429000   202683.3     
   4430000   201141.86    
   4431000   202777.79    
   4432000   196501.56    
   4433000   203814.41    
   4434000   202831.07    
   4435000   197877.28    
   4436000   202272.11    
   4437000   201687       
   4438000   195606.32    
   4439000   200494.55    
   4440000   199009.8     
   4441000   200006.78    
   4442000   197538.64    
   4443000   200305.43    
   4444000   196231.32    
   4445000   196558.64    
   4446000   198413.98    
   4447000   201388.12    
   4448000   200908.11    
   4449000   195894.15    
   4450000   202452.24    
   4451000   199432.6     
   4452000   199590.28    
   4453000   205047.73    
   4454000   204870.97    
   4455000   199918.51    
   4456000   199518.37    
   4457000   201072.35    
   4458000   203012.34    
   4459000   200848.99    
   4460000   196324.77    
   4461000   198757.84    
   4462000   200095.83    
   4463000   198146.92    
   4464000   199377.42    
   4465000   200939.76    
   4466000   195030.06    
   4467000   198506.11    
   4468000   198271.09    
   4469000   202211.67    
   4470000   198271.62    
   4471000   205009.16    
   4472000   196816.62    
   4473000   202732.67    
   4474000   196158.26    
   4475000   197064.82    
   4476000   198604.65    
   4477000   202555.48    
   4478000   196006.01    
   4479000   203126.52    
   4480000   203476.1     
   4481000   200484.13    
   4482000   199540.61    
   4483000   204389.04    
   4484000   203074.99    
   4485000   200876.63    
   4486000   203807.7     
   4487000   196566.62    
   4488000   201879.68    
   4489000   204515.13    
   4490000   195553.46    
   4491000   199395.5     
   4492000   200575.85    
   4493000   201487.65    
   4494000   201794.17    
   4495000   197965.61    
   4496000   201971.85    
   4497000   198624.17    
   4498000   204160.06    
   4499000   191740.94    
   4500000   198894.53    
   4501000   197866.19    
   4502000   207446.62    
   4503000   195724.47    
   4504000   202716.53    
   4505000   201789.19    
   4506000   202852.73    
   4507000   203282.96    
   4508000   200096.99    
   4509000   195928.16    
   4510000   204213.51    
   4511000   197346.87    
   4512000   199274.83    
   4513000   204767.11    
   4514000   197825.7     
   4515000   198548.36    
   4516000   196268.61    
   4517000   197657.13    
   4518000   198322.59    
   4519000   200023.77    
   4520000   200606.88    
   4521000   198273.42    
   4522000   203032.04    
   4523000   198788.96    
   4524000   200715.08    
   4525000   196943.91    
   4526000   202486.49    
   4527000   200707.41    
   4528000   202871.02    
   4529000   202974.51    
   4530000   198535.28    
   4531000   198815.12    
   4532000   199315.33    
   4533000   202849.93    
   4534000   199278.23    
   4535000   200245.21    
   4536000   200214.73    
   4537000   204865.77    
   4538000   202217.48    
   4539000   198357.7     
   4540000   204360.12    
   4541000   195193.31    
   4542000   196565.78    
   4543000   199897.33    
   4544000   203952.2     
   4545000   200797.29    
   4546000   203658.63    
   4547000   198570.3     
   4548000   197139.58    
   4549000   206564.52    
   4550000   199331.05    
   4551000   198100.67    
   4552000   202055.64    
   4553000   199386.29    
   4554000   198614.34    
   4555000   203700.63    
   4556000   203548.19    
   4557000   203360.41    
   4558000   196068.2     
   4559000   193239.06    
   4560000   197724.15    
   4561000   200203.31    
   4562000   203358.13    
   4563000   199850.97    
   4564000   201490.72    
   4565000   196511.56    
   4566000   201743.63    
   4567000   200987.86    
   4568000   198882.65    
   4569000   201779.52    
   4570000   204483.65    
   4571000   197241.66    
   4572000   199851.78    
   4573000   197436.63    
   4574000   200621.52    
   4575000   203364.19    
   4576000   205131.99    
   4577000   202478.64    
   4578000   197816.12    
   4579000   196962.49    
   4580000   199246.91    
   4581000   201001.54    
   4582000   201012.66    
   4583000   197800.34    
   4584000   197720.35    
   4585000   200619.61    
   4586000   206713.59    
   4587000   203213.71    
   4588000   202182.69    
   4589000   201416.7     
   4590000   203426.95    
   4591000   199733.62    
   4592000   197973.15    
   4593000   196011.96    
   4594000   201578.5     
   4595000   204030.48    
   4596000   201528.02    
   4597000   197588.91    
   4598000   201881.53    
   4599000   197628.8     
   4600000   203434.33    
   4601000   203996.76    
   4602000   195968.72    
   4603000   205297.8     
   4604000   205507.1     
   4605000   197920.84    
   4606000   199307.21    
   4607000   200781.34    
   4608000   194561.07    
   4609000   207989.63    
   4610000   200110.48    
   4611000   205527.42    
   4612000   201519.19    
   4613000   199171.64    
   4614000   197925.47    
   4615000   203779.59    
   4616000   199704.4     
   4617000   203911.15    
   4618000   198062.72    
   4619000   200428.52    
   4620000   199832       
   4621000   200873.56    
   4622000   197111.47    
   4623000   198191.51    
   4624000   203798.12    
   4625000   205266.42    
   4626000   196714.91    
   4627000   195164.97    
   4628000   202227.74    
   4629000   201107.76    
   4630000   195183.7     
   4631000   197761       
   4632000   202735.47    
   4633000   202440.23    
   4634000   198411.89    
   4635000   194814.3     
   4636000   201062.13    
   4637000   205028.49    
   4638000   202385.79    
   4639000   198599.79    
   4640000   201974.89    
   4641000   197913.91    
   4642000   197451.28    
   4643000   198497.58    
   4644000   205386.15    
   4645000   199764.72    
   4646000   202216.42    
   4647000   203290.21    
   4648000   201158.58    
   4649000   193926.65    
   4650000   201750.61    
   4651000   200090.36    
   4652000   202469.15    
   4653000   199283.68    
   4654000   198375.33    
   4655000   197343.46    
   4656000   194479.91    
   4657000   198577.6     
   4658000   199648.95    
   4659000   196522.93    
   4660000   198929.63    
   4661000   197132.04    
   4662000   200939.1     
   4663000   200758.95    
   4664000   200904.5     
   4665000   193302.69    
   4666000   205924.2     
   4667000   197930.09    
   4668000   196455.38    
   4669000   204396.27    
   4670000   200274.1     
   4671000   197665.92    
   4672000   195374.17    
   4673000   193691.54    
   4674000   195562.3     
   4675000   199051.62    
   4676000   201251.18    
   4677000   199607.37    
   4678000   196612.91    
   4679000   194458.97    
   4680000   201975.66    
   4681000   202887.47    
   4682000   198597.42    
   4683000   198216.97    
   4684000   194576.66    
   4685000   195247.1     
   4686000   204571.96    
   4687000   200689.56    
   4688000   197967.65    
   4689000   195769.83    
   4690000   199127.39    
   4691000   199623.85    
   4692000   202204.25    
   4693000   200037.06    
   4694000   198391.05    
   4695000   201659.53    
   4696000   198764.59    
   4697000   201436.2     
   4698000   199383.65    
   4699000   196675.09    
   4700000   197948.9     
   4701000   198596.75    
   4702000   199918.94    
   4703000   205700.96    
   4704000   199254.7     
   4705000   200476.78    
   4706000   202564.73    
   4707000   196348.51    
   4708000   198894.96    
   4709000   203312.74    
   4710000   198646.13    
   4711000   198627.21    
   4712000   201730.75    
   4713000   195202.77    
   4714000   202989.25    
   4715000   198881.53    
   4716000   198795.92    
   4717000   206373.68    
   4718000   206199.25    
   4719000   202793.33    
   4720000   201684.83    
   4721000   199502.32    
   4722000   209090.49    
   4723000   201127.97    
   4724000   204983.56    
   4725000   199915.44    
   4726000   201848.2     
   4727000   193408.87    
   4728000   204779.48    
   4729000   192898.66    
   4730000   200897.23    
   4731000   203373.15    
   4732000   197274.19    
   4733000   197783.34    
   4734000   204626.28    
   4735000   198589.51    
   4736000   202155.03    
   4737000   201967.43    
   4738000   198359.38    
   4739000   198019.19    
   4740000   202640.27    
   4741000   201936.18    
   4742000   196820.46    
   4743000   208797.06    
   4744000   198533.57    
   4745000   198084.98    
   4746000   201090.6     
   4747000   199128.66    
   4748000   196319.31    
   4749000   202122.24    
   4750000   198692.02    
   4751000   205081.61    
   4752000   199837.07    
   4753000   198762.5     
   4754000   202422.42    
   4755000   201273.27    
   4756000   201721.16    
   4757000   200925.92    
   4758000   199320.53    
   4759000   205040.14    
   4760000   201049.26    
   4761000   202381.26    
   4762000   201174.03    
   4763000   197796.81    
   4764000   200166.86    
   4765000   197148.62    
   4766000   199758.09    
   4767000   192634.65    
   4768000   198960.25    
   4769000   203094.79    
   4770000   205385.25    
   4771000   199839.65    
   4772000   191449.32    
   4773000   196776.69    
   4774000   201920.55    
   4775000   201257.94    
   4776000   200332.49    
   4777000   195448.76    
   4778000   198297.48    
   4779000   204365       
   4780000   194735.95    
   4781000   201301.97    
   4782000   199076.65    
   4783000   195744.49    
   4784000   199037.22    
   4785000   197847.55    
   4786000   201152.52    
   4787000   200428.4     
   4788000   199579.34    
   4789000   195332.08    
   4790000   199022.74    
   4791000   204836.57    
   4792000   200521.58    
   4793000   204591.81    
   4794000   200028.22    
   4795000   201127.43    
   4796000   195735.74    
   4797000   199733.62    
   4798000   197446.17    
   4799000   198088.81    
   4800000   199577.86    
   4801000   200837.52    
   4802000   197138.34    
   4803000   199014.11    
   4804000   199522.4     
   4805000   196045.56    
   4806000   201008.77    
   4807000   205123.35    
   4808000   199149.19    
   4809000   199319.93    
   4810000   199216.5     
   4811000   194353.07    
   4812000   198275.72    
   4813000   197528.73    
   4814000   203194.46    
   4815000   199142.53    
   4816000   202212.66    
   4817000   205453       
   4818000   200234.64    
   4819000   199236.16    
   4820000   197794.96    
   4821000   194666.81    
   4822000   206528.89    
   4823000   198673.01    
   4824000   199610.99    
   4825000   201054.01    
   4826000   197336.72    
   4827000   193916.3     
   4828000   200601.65    
   4829000   197622.21    
   4830000   196387.78    
   4831000   202589.06    
   4832000   197601.46    
   4833000   199713.17    
   4834000   202471.55    
   4835000   193679.57    
   4836000   199106.28    
   4837000   194701.73    
   4838000   202556.65    
   4839000   198897.51    
   4840000   202162.27    
   4841000   198952.1     
   4842000   203011.46    
   4843000   198233.75    
   4844000   197082.77    
   4845000   198205.5     
   4846000   198867.95    
   4847000   198853.22    
   4848000   199689.56    
   4849000   199460.52    
   4850000   199357.61    
   4851000   196603.48    
   4852000   200115.18    
   4853000   193696.98    
   4854000   197031.65    
   4855000   200298.45    
   4856000   204363.92    
   4857000   202764.94    
   4858000   202529.46    
   4859000   199603.74    
   4860000   192506.61    
   4861000   201887.21    
   4862000   202126.59    
   4863000   203040.79    
   4864000   200451.04    
   4865000   196536.92    
   4866000   202397.68    
   4867000   195990.09    
   4868000   204946.45    
   4869000   200070.52    
   4870000   200168.63    
   4871000   192919.25    
   4872000   199381.13    
   4873000   196592.61    
   4874000   195984.03    
   4875000   199040.71    
   4876000   199441.78    
   4877000   201550.56    
   4878000   201947.52    
   4879000   199385.33    
   4880000   198319.71    
   4881000   196038.01    
   4882000   197401.55    
   4883000   192152.76    
   4884000   201004.08    
   4885000   198829.25    
   4886000   200722.15    
   4887000   202412.02    
   4888000   203728.62    
   4889000   199009.96    
   4890000   199221.77    
   4891000   198104.1     
   4892000   202438.93    
   4893000   201540.41    
   4894000   203958.76    
   4895000   198625.2     
   4896000   202423.35    
   4897000   198751.78    
   4898000   201390.97    
   4899000   196164.18    
   4900000   197554.55    
   4901000   201531.44    
   4902000   204474.85    
   4903000   199870.23    
   4904000   197787.47    
   4905000   199864.66    
   4906000   207590.88    
   4907000   196147.55    
   4908000   193937.43    
   4909000   199237.37    
   4910000   196041.99    
   4911000   203163.72    
   4912000   198869.77    
   4913000   197543.84    
   4914000   198681.55    
   4915000   196947.68    
   4916000   203225.33    
   4917000   201004.2     
   4918000   204332.42    
   4919000   198859.17    
   4920000   194510.58    
   4921000   200633.15    
   4922000   197422.02    
   4923000   206321.15    
   4924000   201533.97    
   4925000   199756.6     
   4926000   200417.09    
   4927000   200538.03    
   4928000   196018.24    
   4929000   193413.29    
   4930000   197026.56    
   4931000   203331.76    
   4932000   200839.28    
   4933000   198108.72    
   4934000   201617.45    
   4935000   200530.11    
   4936000   201054.31    
   4937000   205633.26    
   4938000   196760.13    
   4939000   197618.23    
   4940000   199191.05    
   4941000   200446.75    
   4942000   197044.64    
   4943000   202430.39    
   4944000   205355.91    
   4945000   203923.58    
   4946000   201761.55    
   4947000   194860.75    
   4948000   197101.85    
   4949000   199991.46    
   4950000   200319.37    
   4951000   197666.42    
   4952000   198297.59    
   4953000   204020.5     
   4954000   202770.06    
   4955000   195589       
   4956000   201830.11    
   4957000   197736.35    
   4958000   202314.97    
   4959000   200429.12    
   4960000   205871.93    
   4961000   203935.58    
   4962000   201723.5     
   4963000   192123.99    
   4964000   201837.48    
   4965000   203861.33    
   4966000   200833.37    
   4967000   198906.08    
   4968000   200691.88    
   4969000   203484.73    
   4970000   195829.47    
   4971000   200276.52    
   4972000   193282.91    
   4973000   201535.66    
   4974000   198815.68    
   4975000   197834.41    
   4976000   203489.03    
   4977000   203412.22    
   4978000   197846.6     
   4979000   198951.02    
   4980000   201072.53    
   4981000   196097.61    
   4982000   197552.97    
   4983000   201331.47    
   4984000   207039.31    
   4985000   206513.47    
   4986000   201278.25    
   4987000   195532.36    
   4988000   201008.12    
   4989000   198767.91    
   4990000   199708.27    
   4991000   202505.19    
   4992000   196845.75    
   4993000   196693.28    
   4994000   201232.47    
   4995000   202589.21    
   4996000   202895.42    
   4997000   202101.21    
   4998000   203409.88    
   4999000   201316.38    
   5000000   201744.36    
Loop time of 517.393 on 4 procs for 5000000 steps with 3200 atoms

Performance: 8349.552 tau/day, 9663.834 timesteps/s
99.3% CPU use with 4 MPI tasks x no OpenMP threads

MPI task timing breakdown:
Section |  min time  |  avg time  |  max time  |%varavg| %total
---------------------------------------------------------------
Pair    | 0          | 0          | 0          |   0.0 |  0.00
Neigh   | 0.49263    | 0.51898    | 0.56761    |   4.0 |  0.10
Comm    | 6.9453     | 7.0303     | 7.1897     |   3.5 |  1.36
Output  | 1.298      | 1.304      | 1.3062     |   0.3 |  0.25
Modify  | 476.1      | 481.39     | 491.91     |  28.7 | 93.04
Other   |            | 27.15      |            |       |  5.25

Nlocal:            800 ave         830 max         766 min
Histogram: 1 1 0 0 0 0 0 0 0 2
Nghost:              0 ave           0 max           0 min
Histogram: 4 0 0 0 0 0 0 0 0 0
Neighs:              0 ave           0 max           0 min
Histogram: 4 0 0 0 0 0 0 0 0 0

Total # of neighbors = 0
Ave neighs/atom = 0
Neighbor list builds = 328647
Dangerous builds = 1765
Total wall time: 0:08:37
