LAMMPS (23 Jun 2022 - Update 4)
# Defining system
units           lj
atom_style     atomic
boundary       p p p
dimension      3

# Read positions from external file
read_data ../Data/brownian_L_20.0_rho_0.2.data
Reading data file ...
  orthogonal box = (-10 -10 -10) to (10 10 10)
  1 by 2 by 2 MPI processor grid
  reading atoms ...
  3200 atoms
  read_data CPU = 0.005 seconds

# System variables
variable seed equal 414543
variable temperature equal 1.0
variable D equal 1           #difusion constant
variable gamma equal 1.0/${D}   #translational friction
variable gamma equal 1.0/1   
variable rc equal 1.122462048   #cutoff radius

# Atom types
group dumbbell type 1
3200 atoms in group dumbbell
mass 1 1.0

# Define time integration
timestep 0.00001
fix 1 all nve

# Brownian fix
fix brownFix dumbbell brownian ${temperature} ${seed} gamma_t ${gamma} rng gaussian
fix brownFix dumbbell brownian 1 ${seed} gamma_t ${gamma} rng gaussian
fix brownFix dumbbell brownian 1 414543 gamma_t ${gamma} rng gaussian
fix brownFix dumbbell brownian 1 414543 gamma_t 1 rng gaussian

# Start with soft potential so particles push apart each other slowly
#pair_style soft ${rc}
#pair_coeff 1 1  100.0 ${rc}

#run 100000

# Switch to Lennard-Jones interatomic potential
pair_style lj/cut 2.5
pair_coeff 1 1 1.0 1.0 ${rc}
pair_coeff 1 1 1.0 1.0 1.122462048

# MSD
compute msd1 dumbbell msd
variable msd1 equal c_msd1[4]
fix msd1fix dumbbell ave/time 1 1 1  c_msd1[4] file msd_rho_0.2.data

thermo_style custom step temp
thermo 1000

dump 1 dumbbell custom 10000 dump.rho_0.2 id  xu yu zu vx vy vz

# Run simulation
run 1000000
Generated 0 of 0 mixed pair_coeff terms from geometric mixing rule
WARNING: One or more atoms are time integrated more than once (../modify.cpp:292)
Neighbor list info ...
  update every 1 steps, delay 10 steps, check yes
  max neighbors/atom: 2000, page size: 100000
  master list distance cutoff = 1.422462
  ghost atom cutoff = 1.422462
  binsize = 0.71123102, bins = 29 29 29
  1 neighbor lists, perpetual/occasional/extra = 1 0 0
  (1) pair lj/cut, perpetual
      attributes: half, newton on
      pair build: half/bin/atomonly/newton
      stencil: half/bin/3d
      bin: standard
Per MPI rank memory allocation (min/avg/max) = 4.796 | 4.8 | 4.804 Mbytes
   Step          Temp     
         0   0            
      1000   203547.66    
      2000   201597.18    
      3000   199663.82    
      4000   199395.91    
      5000   196554.69    
      6000   202173.8     
      7000   199104.1     
      8000   201966.44    
      9000   201014.23    
     10000   199984.57    
     11000   203367.71    
     12000   201098.87    
     13000   202895.1     
     14000   200265.77    
     15000   195861       
     16000   200564.25    
     17000   205710.57    
     18000   202792.57    
     19000   200570.82    
     20000   196935.35    
     21000   201007.56    
     22000   201963.69    
     23000   201681.07    
     24000   205134.66    
     25000   204517.44    
     26000   203286.88    
     27000   200401.61    
     28000   201033.29    
     29000   201898.1     
     30000   205033.7     
     31000   198022.51    
     32000   203025.36    
     33000   197161.76    
     34000   198535.01    
     35000   197104.15    
     36000   199995.43    
     37000   199779.56    
     38000   198882.71    
     39000   204956.03    
     40000   199536.56    
     41000   197577.28    
     42000   194103.76    
     43000   203630.32    
     44000   205423.64    
     45000   199017.35    
     46000   198573.26    
     47000   198967.2     
     48000   199288.17    
     49000   199970.91    
     50000   202067.85    
     51000   199182.28    
     52000   207741.78    
     53000   200414.18    
     54000   196336.31    
     55000   201224.52    
     56000   196410       
     57000   199953.73    
     58000   199381.9     
     59000   199633.56    
     60000   200128.19    
     61000   200747.63    
     62000   200720.6     
     63000   198692.58    
     64000   200019.44    
     65000   200042.63    
     66000   204844.77    
     67000   197898.57    
     68000   200123.07    
     69000   202889.23    
     70000   201827.02    
     71000   198485.78    
     72000   201677.47    
     73000   200662.49    
     74000   200542.39    
     75000   198874.31    
     76000   202722.08    
     77000   197231.61    
     78000   199935.5     
     79000   199557.07    
     80000   201424.86    
     81000   199995.69    
     82000   196031.93    
     83000   200287.08    
     84000   198927.83    
     85000   206687.34    
     86000   206034.28    
     87000   200347.09    
     88000   202495.28    
     89000   194781.95    
     90000   198052.83    
     91000   201526.9     
     92000   197282.42    
     93000   206455.91    
     94000   191613.59    
     95000   199741.08    
     96000   201745.29    
     97000   202090.02    
     98000   203381.32    
     99000   199211.05    
    100000   201496.06    
    101000   202204.81    
    102000   205948.4     
    103000   202089.51    
    104000   193246.55    
    105000   198278.4     
    106000   203139.52    
    107000   200987.41    
    108000   198060.25    
    109000   201538.18    
    110000   201159.23    
    111000   204527.75    
    112000   205574.65    
    113000   194540.38    
    114000   202989.82    
    115000   208688.19    
    116000   200548.13    
    117000   198629.48    
    118000   201333.34    
    119000   199335.09    
    120000   201978.39    
    121000   205485.8     
    122000   199450.1     
    123000   200803.84    
    124000   198279.54    
    125000   202850.82    
    126000   205305.32    
    127000   202564.1     
    128000   196039.47    
    129000   205158.28    
    130000   198409.57    
    131000   203788.79    
    132000   205404.57    
    133000   204526.05    
    134000   195486.83    
    135000   204969.1     
    136000   196803.64    
    137000   198531.43    
    138000   200658.37    
    139000   196264.55    
    140000   200061.06    
    141000   203902.12    
    142000   200798.55    
    143000   196278.71    
    144000   193924.73    
    145000   199675.15    
    146000   197367.75    
    147000   200121.67    
    148000   205867.73    
    149000   205623.37    
    150000   195239.28    
    151000   204395.64    
    152000   199501.63    
    153000   201416.11    
    154000   198232.8     
    155000   205186.1     
    156000   200184.9     
    157000   198344.59    
    158000   203579.96    
    159000   199723.61    
    160000   199357.39    
    161000   198413.73    
    162000   199735.61    
    163000   203373.32    
    164000   195820.66    
    165000   200683.02    
    166000   199126.13    
    167000   201024.38    
    168000   203080.17    
    169000   198465.12    
    170000   196163.02    
    171000   198995.74    
    172000   207027.7     
    173000   197747.54    
    174000   198763.95    
    175000   202423.5     
    176000   202243.84    
    177000   202502.64    
    178000   201990.47    
    179000   198161.7     
    180000   200271.52    
    181000   198180.48    
    182000   198964.02    
    183000   197833.95    
    184000   201964.66    
    185000   204523.19    
    186000   204960.62    
    187000   199925.79    
    188000   200054.93    
    189000   198527.19    
    190000   200546.83    
    191000   197561.36    
    192000   200343.44    
    193000   198324.56    
    194000   195817.26    
    195000   197019.5     
    196000   201201.02    
    197000   198008.59    
    198000   203527.48    
    199000   200188.86    
    200000   198085.62    
    201000   203632.08    
    202000   203477.74    
    203000   200409.6     
    204000   202902.85    
    205000   199886.92    
    206000   197022.11    
    207000   199975.91    
    208000   200249.25    
    209000   197990.98    
    210000   199906.68    
    211000   200087.6     
    212000   200169.21    
    213000   197460.76    
    214000   198267.81    
    215000   200021.66    
    216000   202356.18    
    217000   199996.69    
    218000   200111.15    
    219000   195332.72    
    220000   199226.12    
    221000   196488.8     
    222000   199005.82    
    223000   202581.35    
    224000   199137.51    
    225000   201824.01    
    226000   199755.07    
    227000   202168.74    
    228000   198912.08    
    229000   200298.56    
    230000   196846.54    
    231000   201745.25    
    232000   202422.3     
    233000   202946.5     
    234000   200083.03    
    235000   196618.76    
    236000   201528.78    
    237000   198948.76    
    238000   194959.06    
    239000   201960.57    
    240000   202404.54    
    241000   199420.78    
    242000   202091.8     
    243000   200019.94    
    244000   199015.07    
    245000   199478.99    
    246000   197306.65    
    247000   198988.53    
    248000   196741.46    
    249000   201057.34    
    250000   196315.15    
    251000   201167.05    
    252000   196377.72    
    253000   200493.41    
    254000   200013.62    
    255000   199004.2     
    256000   196439.15    
    257000   197080.63    
    258000   198104.74    
    259000   198186.29    
    260000   204817.51    
    261000   200069.88    
    262000   199750.93    
    263000   200047.91    
    264000   197885.25    
    265000   201736.12    
    266000   200547.14    
    267000   200436.1     
    268000   196128.64    
    269000   194320.44    
    270000   201866.32    
    271000   203209.58    
    272000   201430.73    
    273000   197798.06    
    274000   200081.61    
    275000   199933.98    
    276000   201648.92    
    277000   201875.33    
    278000   199259.62    
    279000   200391.93    
    280000   201073.1     
    281000   199908.44    
    282000   202091.16    
    283000   196303.31    
    284000   202937.57    
    285000   205769.88    
    286000   198142.13    
    287000   198856.44    
    288000   200691.63    
    289000   205012.14    
    290000   200351.47    
    291000   201534.69    
    292000   203039.66    
    293000   200006.4     
    294000   200505.61    
    295000   200361.46    
    296000   201356.17    
    297000   198883.97    
    298000   204915.28    
    299000   198547.33    
    300000   202430.53    
    301000   202110.7     
    302000   199215.28    
    303000   196655.51    
    304000   200438.38    
    305000   197315.76    
    306000   204383.08    
    307000   201475.11    
    308000   199934.28    
    309000   201850.78    
    310000   197872.36    
    311000   201342.56    
    312000   200462.33    
    313000   190853.9     
    314000   205978.99    
    315000   197933.42    
    316000   198659.58    
    317000   202502.45    
    318000   196109.79    
    319000   198470.12    
    320000   202223.18    
    321000   208242.21    
    322000   201104.56    
    323000   201575.68    
    324000   194643.1     
    325000   201340.9     
    326000   200955.3     
    327000   199467.64    
    328000   205714.77    
    329000   199773.74    
    330000   201622.9     
    331000   205051.17    
    332000   200010.19    
    333000   201482.38    
    334000   201112.04    
    335000   196741.88    
    336000   202398.25    
    337000   204332.39    
    338000   200848.33    
    339000   203797.81    
    340000   200886.39    
    341000   198018.09    
    342000   196608.54    
    343000   205098.34    
    344000   201168.83    
    345000   200487.81    
    346000   196163.08    
    347000   197311.42    
    348000   200511.24    
    349000   204415.31    
    350000   195744.42    
    351000   202320.12    
    352000   202582.85    
    353000   204449.9     
    354000   200746.95    
    355000   200318.8     
    356000   203290       
    357000   201505.05    
    358000   202727.39    
    359000   203399.81    
    360000   203125.54    
    361000   195518.82    
    362000   202504.01    
    363000   201635.76    
    364000   200374.73    
    365000   199994.14    
    366000   205607.15    
    367000   202469.77    
    368000   196777.53    
    369000   206944.74    
    370000   201601.3     
    371000   200305.61    
    372000   198189.94    
    373000   201888.28    
    374000   200608.94    
    375000   199983.73    
    376000   201692.77    
    377000   199174.33    
    378000   200989.25    
    379000   201366.89    
    380000   199343.79    
    381000   198575.98    
    382000   200885.24    
    383000   204567.07    
    384000   197660.68    
    385000   200563.63    
    386000   205604.38    
    387000   199579.25    
    388000   196748.28    
    389000   201262.45    
    390000   201505.55    
    391000   192259.53    
    392000   202048.02    
    393000   196669.2     
    394000   201502.1     
    395000   204121.68    
    396000   201452.17    
    397000   199961.5     
    398000   198962.59    
    399000   199370.95    
    400000   203069.32    
    401000   201349.49    
    402000   208029.86    
    403000   207918.89    
    404000   198795.36    
    405000   205023.14    
    406000   203421.05    
    407000   204078.27    
    408000   200534.87    
    409000   202673.14    
    410000   203257.1     
    411000   201446.06    
    412000   195040.68    
    413000   198003.3     
    414000   204758.08    
    415000   198854.77    
    416000   200095.91    
    417000   202756.47    
    418000   198792.24    
    419000   202967.51    
    420000   197135.28    
    421000   199811.13    
    422000   199763.77    
    423000   200365.2     
    424000   197779.54    
    425000   202070.22    
    426000   199123.08    
    427000   202249.28    
    428000   206207.79    
    429000   205958.66    
    430000   196760.42    
    431000   197435.51    
    432000   200765.11    
    433000   201174.38    
    434000   196883.04    
    435000   201983.61    
    436000   202520       
    437000   201682.98    
    438000   196610.89    
    439000   199534.74    
    440000   203029.52    
    441000   198508.16    
    442000   203232.78    
    443000   196299.15    
    444000   203828.82    
    445000   196622.01    
    446000   197011.39    
    447000   199626.32    
    448000   202480.32    
    449000   197815.16    
    450000   197491.22    
    451000   199903.29    
    452000   199372.95    
    453000   200044.37    
    454000   201093.46    
    455000   200976.59    
    456000   199417.62    
    457000   205047.65    
    458000   203896.88    
    459000   201951.75    
    460000   202193.53    
    461000   203454.58    
    462000   198637.75    
    463000   197802.51    
    464000   198320.09    
    465000   200049.67    
    466000   198639.27    
    467000   199416.96    
    468000   203546.1     
    469000   196727.7     
    470000   200309.55    
    471000   201757.58    
    472000   199312.43    
    473000   201088.12    
    474000   198393.36    
    475000   201036.16    
    476000   198249.67    
    477000   193574.2     
    478000   199386.59    
    479000   202491.49    
    480000   202550.28    
    481000   203556.85    
    482000   199098.78    
    483000   198698.12    
    484000   199304.72    
    485000   202754.92    
    486000   200731.16    
    487000   202936.11    
    488000   198857.77    
    489000   196915.15    
    490000   195783.18    
    491000   202200.74    
    492000   204274.62    
    493000   200014.3     
    494000   198383.54    
    495000   200833.07    
    496000   205251.18    
    497000   196055.71    
    498000   203744.92    
    499000   203258.06    
    500000   203439.01    
    501000   199479.91    
    502000   199794.22    
    503000   199039.22    
    504000   198300.48    
    505000   198006.13    
    506000   201002.58    
    507000   198983.83    
    508000   200184.63    
    509000   202054.54    
    510000   197815.89    
    511000   205904.3     
    512000   203590.1     
    513000   202146.25    
    514000   199863.8     
    515000   198791.53    
    516000   199811.2     
    517000   200881.21    
    518000   202168.47    
    519000   199496.11    
    520000   201515.75    
    521000   201072.87    
    522000   198456.3     
    523000   201490.99    
    524000   200946       
    525000   202174.11    
    526000   203800.71    
    527000   200198.38    
    528000   203372.42    
    529000   198098.31    
    530000   205099.69    
    531000   200377.99    
    532000   202721.42    
    533000   197634.62    
    534000   205386.98    
    535000   201873.75    
    536000   198236.49    
    537000   203254.14    
    538000   200866.63    
    539000   198659.03    
    540000   201943.35    
    541000   198796.73    
    542000   192119.05    
    543000   196675.63    
    544000   196487.97    
    545000   200095.5     
    546000   197817.01    
    547000   204488.24    
    548000   201885.94    
    549000   197962.85    
    550000   200682.06    
    551000   198867.39    
    552000   203973.19    
    553000   200653.1     
    554000   199542.03    
    555000   200664.83    
    556000   205876.77    
    557000   199182.43    
    558000   203984.53    
    559000   198207.44    
    560000   204544.27    
    561000   199599.72    
    562000   200941.55    
    563000   202344.18    
    564000   205032.52    
    565000   202492.93    
    566000   198994.06    
    567000   201253.68    
    568000   199895.23    
    569000   200391.21    
    570000   203615.24    
    571000   199521.63    
    572000   203675.06    
    573000   199278.41    
    574000   203440.53    
    575000   204674.82    
    576000   204528.99    
    577000   201126.45    
    578000   200314.01    
    579000   200100.46    
    580000   198890.34    
    581000   195580.36    
    582000   200193.25    
    583000   202010.58    
    584000   197804.47    
    585000   198969.13    
    586000   202661.29    
    587000   200298.78    
    588000   202863.29    
    589000   199901.41    
    590000   201490.55    
    591000   199685.5     
    592000   204199.68    
    593000   200821.57    
    594000   192661.54    
    595000   193217.3     
    596000   200926.05    
    597000   202395.87    
    598000   204252.12    
    599000   197996.1     
    600000   198981.43    
    601000   198177.73    
    602000   198699.75    
    603000   204221.83    
    604000   200003.69    
    605000   198953.27    
    606000   200095.52    
    607000   204615.55    
    608000   196495.42    
    609000   203344.49    
    610000   200187.49    
    611000   199838.86    
    612000   198564.94    
    613000   201253.17    
    614000   199005.55    
    615000   202971.57    
    616000   202848.68    
    617000   197750.68    
    618000   195463.58    
    619000   200268.95    
    620000   199889.88    
    621000   194765.71    
    622000   204685.92    
    623000   194501.55    
    624000   200256.97    
    625000   198522.64    
    626000   197720.19    
    627000   195899.16    
    628000   197914.49    
    629000   203707.78    
    630000   203786.18    
    631000   199767.36    
    632000   206429.32    
    633000   204163.64    
    634000   198388.76    
    635000   196258.12    
    636000   200233.71    
    637000   197927.06    
    638000   201969.65    
    639000   201124.69    
    640000   200161.07    
    641000   197951.33    
    642000   203010.61    
    643000   203906.42    
    644000   194120.99    
    645000   201123.9     
    646000   197209.7     
    647000   199653.69    
    648000   202165.63    
    649000   203816.33    
    650000   199020.65    
    651000   206511.73    
    652000   197028.02    
    653000   200405.43    
    654000   200335.93    
    655000   196897.04    
    656000   204851.92    
    657000   204699.25    
    658000   202513.73    
    659000   201701.6     
    660000   199695.34    
    661000   198093.96    
    662000   199176.57    
    663000   200928.02    
    664000   204403.47    
    665000   194148.47    
    666000   197278.93    
    667000   201758.67    
    668000   202113.51    
    669000   201069.62    
    670000   204040.64    
    671000   199977.62    
    672000   201832.23    
    673000   199492.93    
    674000   204351.87    
    675000   206509.88    
    676000   202955.12    
    677000   202144.01    
    678000   201742.72    
    679000   203441.56    
    680000   203737.66    
    681000   197424.78    
    682000   201707.41    
    683000   204110.09    
    684000   201610.36    
    685000   200202.19    
    686000   201703.01    
    687000   202379.95    
    688000   204442.43    
    689000   195981.99    
    690000   198727.22    
    691000   199753.35    
    692000   195251.76    
    693000   198924.55    
    694000   201349.43    
    695000   198561.61    
    696000   196238.44    
    697000   199504.43    
    698000   196126.83    
    699000   200290.95    
    700000   198241.5     
    701000   201185.89    
    702000   200964.62    
    703000   198887.42    
    704000   198751.54    
    705000   201723.21    
    706000   196353.37    
    707000   198415.9     
    708000   198923.2     
    709000   202532.06    
    710000   198941.33    
    711000   197513.67    
    712000   197141.79    
    713000   202564.82    
    714000   199730.13    
    715000   200822.91    
    716000   198614.34    
    717000   200953.27    
    718000   194265.81    
    719000   199577.15    
    720000   201459.18    
    721000   202878.87    
    722000   197558.57    
    723000   202376.8     
    724000   208175.33    
    725000   197699.36    
    726000   201484       
    727000   201277.83    
    728000   196251.77    
    729000   205353.1     
    730000   195224.71    
    731000   200534.6     
    732000   197948.47    
    733000   202345.23    
    734000   196774.23    
    735000   199467.37    
    736000   201348.15    
    737000   199047.77    
    738000   195920.23    
    739000   196980.5     
    740000   197020.53    
    741000   203888.8     
    742000   201696.98    
    743000   204173.19    
    744000   201201.08    
    745000   196616.27    
    746000   199793.66    
    747000   200566.21    
    748000   200509.36    
    749000   201570.9     
    750000   196903.55    
    751000   203527.54    
    752000   201084.3     
    753000   199776.56    
    754000   203346.68    
    755000   199676.03    
    756000   199353.11    
    757000   199148.03    
    758000   199211.35    
    759000   202576.64    
    760000   200508.32    
    761000   200519.74    
    762000   200004.89    
    763000   198775.83    
    764000   203818.81    
    765000   199640.13    
    766000   199309.12    
    767000   205586.02    
    768000   202571.06    
    769000   200161.47    
    770000   202903.34    
    771000   196474.67    
    772000   202216.08    
    773000   198254.98    
    774000   199765.56    
    775000   200212.18    
    776000   196081.4     
    777000   205514.61    
    778000   199378.89    
    779000   198843.92    
    780000   201229.66    
    781000   200524.83    
    782000   201676.46    
    783000   199219.67    
    784000   198256.51    
    785000   197739.46    
    786000   195313.38    
    787000   199885.62    
    788000   196297.53    
    789000   199620.44    
    790000   200851.2     
    791000   198675.29    
    792000   202428.24    
    793000   206079.69    
    794000   201891.36    
    795000   198613.42    
    796000   198491.88    
    797000   196843.97    
    798000   202207.68    
    799000   203736.03    
    800000   193747.4     
    801000   203109.74    
    802000   200279.54    
    803000   202952.31    
    804000   200721.68    
    805000   202595.33    
    806000   199971.16    
    807000   194135.59    
    808000   191893.79    
    809000   202752.22    
    810000   198541.93    
    811000   200871.05    
    812000   200102.61    
    813000   204490.66    
    814000   201953.36    
    815000   200756.88    
    816000   206908.97    
    817000   205388.8     
    818000   203558.26    
    819000   203527.86    
    820000   199479.27    
    821000   201605.14    
    822000   201687.08    
    823000   203372.81    
    824000   201353.23    
    825000   200395.37    
    826000   202646.63    
    827000   198965.77    
    828000   202482.19    
    829000   196850.2     
    830000   200233.78    
    831000   196343.06    
    832000   206542.34    
    833000   198585.03    
    834000   201104.94    
    835000   206254.73    
    836000   198647.37    
    837000   200059.28    
    838000   193307.45    
    839000   199250.58    
    840000   205349.93    
    841000   202871.87    
    842000   200841.89    
    843000   194456.68    
    844000   200952.5     
    845000   201635.89    
    846000   197023.86    
    847000   202609.95    
    848000   200738.49    
    849000   199546.2     
    850000   202143.21    
    851000   203227.64    
    852000   202414.44    
    853000   200196.22    
    854000   200345.78    
    855000   201138.79    
    856000   199463.19    
    857000   203348.59    
    858000   197436.98    
    859000   197980.2     
    860000   197343.55    
    861000   199769.2     
    862000   200142.1     
    863000   193546.65    
    864000   203144.1     
    865000   205736.64    
    866000   202919.95    
    867000   200333.4     
    868000   198487.88    
    869000   194580.31    
    870000   200985.49    
    871000   196467.88    
    872000   199398.69    
    873000   203496.15    
    874000   200792.28    
    875000   199464.9     
    876000   199623.84    
    877000   206392.14    
    878000   204388.59    
    879000   198996.79    
    880000   199774.89    
    881000   204241.15    
    882000   203573.53    
    883000   203787.74    
    884000   198506.33    
    885000   199583.68    
    886000   204290.46    
    887000   200275.06    
    888000   196495.19    
    889000   204391.55    
    890000   200992.42    
    891000   194608.63    
    892000   201034.54    
    893000   203940.32    
    894000   195467.21    
    895000   202935.75    
    896000   199078.03    
    897000   198404.18    
    898000   201886.9     
    899000   204618.12    
    900000   203066.67    
    901000   200436.32    
    902000   200637.49    
    903000   199258.97    
    904000   202723.15    
    905000   201738.45    
    906000   200613.75    
    907000   201385.36    
    908000   202289.39    
    909000   203765.86    
    910000   195823.39    
    911000   200659.78    
    912000   202596.44    
    913000   198397.63    
    914000   199483.06    
    915000   202731.14    
    916000   198884.55    
    917000   202833.04    
    918000   200164.6     
    919000   196492.83    
    920000   199113.18    
    921000   199641.38    
    922000   198403.2     
    923000   197584.48    
    924000   201415.88    
    925000   202689.63    
    926000   201012.63    
    927000   200639.36    
    928000   197987.7     
    929000   200395.95    
    930000   196083.85    
    931000   198854.55    
    932000   200706.39    
    933000   204406.02    
    934000   201789.35    
    935000   205104.53    
    936000   200372.1     
    937000   202203.04    
    938000   199659.24    
    939000   193841.31    
    940000   197390.58    
    941000   201575.33    
    942000   208358.32    
    943000   198983.41    
    944000   200269.64    
    945000   203392.81    
    946000   198464.34    
    947000   199617.72    
    948000   199337.13    
    949000   198090.83    
    950000   197324.37    
    951000   200150.76    
    952000   197341.83    
    953000   201889.67    
    954000   198647.34    
    955000   201633.17    
    956000   199277.38    
    957000   194517.59    
    958000   200003.44    
    959000   197763.96    
    960000   201396.68    
    961000   200294.69    
    962000   200877.57    
    963000   203092.02    
    964000   196983.37    
    965000   208312.68    
    966000   204523.86    
    967000   205195.89    
    968000   203058.98    
    969000   201965.98    
    970000   198451.36    
    971000   201425.9     
    972000   195234.52    
    973000   199960.3     
    974000   203294.14    
    975000   201971.64    
    976000   204313.92    
    977000   202171.47    
    978000   199760.53    
    979000   200584.07    
    980000   199541.26    
    981000   200562.13    
    982000   198945.78    
    983000   196202.81    
    984000   201235.43    
    985000   200571.99    
    986000   203209.11    
    987000   199810.22    
    988000   202920.87    
    989000   203309.79    
    990000   197954.64    
    991000   195221.38    
    992000   194821.55    
    993000   199922.41    
    994000   198480.27    
    995000   201793.41    
    996000   202964.11    
    997000   198471.73    
    998000   210566.93    
    999000   198163.49    
   1000000   200596.83    
Loop time of 167.988 on 4 procs for 1000000 steps with 3200 atoms

Performance: 5143.219 tau/day, 5952.800 timesteps/s
99.4% CPU use with 4 MPI tasks x no OpenMP threads

MPI task timing breakdown:
Section |  min time  |  avg time  |  max time  |%varavg| %total
---------------------------------------------------------------
Pair    | 24.84      | 24.964     | 25.085     |   1.7 | 14.86
Neigh   | 17.747     | 17.805     | 17.875     |   1.1 | 10.60
Comm    | 23.421     | 26.042     | 27.271     |  30.0 | 15.50
Output  | 0.22865    | 0.23008    | 0.23056    |   0.2 |  0.14
Modify  | 90.235     | 92.268     | 96.649     |  26.8 | 54.93
Other   |            | 6.677      |            |       |  3.97

Nlocal:            800 ave         817 max         791 min
Histogram: 1 2 0 0 0 0 0 0 0 1
Nghost:          710.5 ave         724 max         702 min
Histogram: 1 0 2 0 0 0 0 0 0 1
Neighs:         1670.5 ave        1723 max        1633 min
Histogram: 1 0 1 1 0 0 0 0 0 1

Total # of neighbors = 6682
Ave neighs/atom = 2.088125
Neighbor list builds = 65084
Dangerous builds = 318
Total wall time: 0:02:47
