LAMMPS (23 Jun 2022 - Update 4)
# Defining system
units           lj
atom_style     atomic
boundary       p p p
dimension      3

# Read positions from external file
read_data ../Data/brownian_L_20.0_rho_0.2.data
Reading data file ...
  orthogonal box = (-10 -10 -10) to (10 10 10)
  2 by 1 by 3 MPI processor grid
  reading atoms ...
  3200 atoms
  read_data CPU = 0.005 seconds

# System variables
variable seed equal 414543
variable temperature equal 1.0
variable D equal 0.77           #difusion constant
variable gamma equal 1.0/${D}   #translational friction
variable gamma equal 1.0/0.77   
variable rc equal 1.122462048   #cutoff radius

# Atom types
group dumbbell type 1
3200 atoms in group dumbbell
mass 1 1.0

# Define time integration
timestep 0.00001

# Brownian fix
fix brownFix dumbbell brownian ${temperature} ${seed} gamma_t ${gamma} rng gaussian
fix brownFix dumbbell brownian 1 ${seed} gamma_t ${gamma} rng gaussian
fix brownFix dumbbell brownian 1 414543 gamma_t ${gamma} rng gaussian
fix brownFix dumbbell brownian 1 414543 gamma_t 1.2987012987013 rng gaussian

# Lennard-Jones interatomic potential
pair_style lj/cut 2.5
pair_coeff 1 1 1.0 1.0 ${rc}
pair_coeff 1 1 1.0 1.0 1.122462048

#No interactions
#pair_style none

# MSD
compute msd1 dumbbell msd
variable msd1 equal c_msd1[4]
fix msd1fix dumbbell ave/time 1 1 1  c_msd1[4] file msd_brownian_rho_0.2_3D.data

thermo_style custom step temp
thermo 1000

dump 1 dumbbell custom 10000 dump.brownian_rho_0.2_3D id  xu yu zu vx vy vz
#dump_modify sort id

# Run simulation
run 5000000
Generated 0 of 0 mixed pair_coeff terms from geometric mixing rule
Neighbor list info ...
  update every 1 steps, delay 10 steps, check yes
  max neighbors/atom: 2000, page size: 100000
  master list distance cutoff = 1.422462
  ghost atom cutoff = 1.422462
  binsize = 0.71123102, bins = 29 29 29
  1 neighbor lists, perpetual/occasional/extra = 1 0 0
  (1) pair lj/cut, perpetual
      attributes: half, newton on
      pair build: half/bin/atomonly/newton
      stencil: half/bin/3d
      bin: standard
Per MPI rank memory allocation (min/avg/max) = 4.783 | 4.795 | 4.807 Mbytes
   Step          Temp     
         0   0            
      1000   152803.79    
      2000   159525.26    
      3000   157978.97    
      4000   152725.47    
      5000   157441.61    
      6000   149621.38    
      7000   149891.71    
      8000   156089.64    
      9000   155193.24    
     10000   153724.05    
     11000   156316.92    
     12000   152377.05    
     13000   155468.95    
     14000   155641.46    
     15000   151208.79    
     16000   153918.65    
     17000   155616.02    
     18000   157172.44    
     19000   154413.93    
     20000   151838.33    
     21000   154467.79    
     22000   155454.1     
     23000   152389.9     
     24000   155617.25    
     25000   152265.54    
     26000   157345.97    
     27000   153888.84    
     28000   154704.96    
     29000   151363.83    
     30000   154216.03    
     31000   153506.33    
     32000   151076.57    
     33000   153458.5     
     34000   149494.9     
     35000   153624.98    
     36000   158173.34    
     37000   147942.94    
     38000   154398.19    
     39000   154343.8     
     40000   158357.88    
     41000   153626.68    
     42000   153922.19    
     43000   155592.22    
     44000   151405.06    
     45000   157789.42    
     46000   148641.43    
     47000   153239.9     
     48000   151792.98    
     49000   155475.1     
     50000   155353.37    
     51000   156389.88    
     52000   152960.36    
     53000   154384.76    
     54000   153357.89    
     55000   152861.71    
     56000   152170.81    
     57000   151941.08    
     58000   153122       
     59000   152967.35    
     60000   154494.08    
     61000   150734.9     
     62000   154292.76    
     63000   155421.75    
     64000   153450.48    
     65000   150585.05    
     66000   149410.95    
     67000   158159.15    
     68000   153564.92    
     69000   153055.23    
     70000   157035.94    
     71000   152056.95    
     72000   155146.33    
     73000   158422.89    
     74000   156113.76    
     75000   151249.81    
     76000   151909.54    
     77000   151563.87    
     78000   155625.27    
     79000   154820.16    
     80000   152322.97    
     81000   156384.36    
     82000   152854.51    
     83000   153735.85    
     84000   154070.76    
     85000   151676.48    
     86000   154282.76    
     87000   155674.69    
     88000   159471.84    
     89000   150906.19    
     90000   153581.13    
     91000   155870.04    
     92000   152955.47    
     93000   153092.14    
     94000   155760.65    
     95000   158053.45    
     96000   155588.45    
     97000   155420.67    
     98000   156395.12    
     99000   153909.16    
    100000   153951.72    
    101000   155873.4     
    102000   154907.04    
    103000   152435.43    
    104000   155075.5     
    105000   156049.52    
    106000   153196.42    
    107000   148759.88    
    108000   156259.95    
    109000   153491.02    
    110000   153511.6     
    111000   156959.38    
    112000   158712.4     
    113000   155275.02    
    114000   151737.23    
    115000   154432.3     
    116000   154120.49    
    117000   151487.57    
    118000   153572.85    
    119000   151173.81    
    120000   151558.22    
    121000   156641.77    
    122000   149511.34    
    123000   154581.57    
    124000   153872.66    
    125000   153427.96    
    126000   153216.33    
    127000   155734.45    
    128000   156793.03    
    129000   153187       
    130000   154304.44    
    131000   151388.75    
    132000   157557.57    
    133000   154024.47    
    134000   155922.67    
    135000   157101.93    
    136000   156689.71    
    137000   156064.83    
    138000   156694.91    
    139000   153578.65    
    140000   151862.86    
    141000   153361.67    
    142000   154354.58    
    143000   154737.5     
    144000   155628.76    
    145000   155572.31    
    146000   157690.67    
    147000   157911.94    
    148000   151415.92    
    149000   154021.65    
    150000   152211.26    
    151000   156777.27    
    152000   154373.68    
    153000   153858.11    
    154000   156294.8     
    155000   156270.48    
    156000   153859.37    
    157000   150866.95    
    158000   157054.33    
    159000   155476.33    
    160000   150736.69    
    161000   154174.18    
    162000   151327.59    
    163000   156003       
    164000   157575.78    
    165000   154060.28    
    166000   152572.6     
    167000   151742.22    
    168000   157507.21    
    169000   156420.96    
    170000   157836.19    
    171000   155360.16    
    172000   152787.84    
    173000   154822.31    
    174000   153024.48    
    175000   153159.26    
    176000   154049.56    
    177000   157576.98    
    178000   152837.36    
    179000   157873.54    
    180000   149560.29    
    181000   153731.7     
    182000   152568.64    
    183000   154215.97    
    184000   154638.51    
    185000   152284.42    
    186000   155134.19    
    187000   151580.73    
    188000   153017.72    
    189000   152536.12    
    190000   154164.57    
    191000   155940.48    
    192000   151475.06    
    193000   153946.66    
    194000   156793.17    
    195000   152763.33    
    196000   153024.53    
    197000   155231.86    
    198000   153289.34    
    199000   156063.7     
    200000   153039.98    
    201000   156725.19    
    202000   148157.97    
    203000   152170.04    
    204000   156673.83    
    205000   152136.51    
    206000   151223.12    
    207000   151950.68    
    208000   156609.84    
    209000   154536.56    
    210000   153483.89    
    211000   155494.47    
    212000   155884.01    
    213000   154546.89    
    214000   153812.48    
    215000   153750.08    
    216000   154667.62    
    217000   154025.81    
    218000   153107.8     
    219000   157414.45    
    220000   158056.08    
    221000   156120.29    
    222000   154547.96    
    223000   155621.21    
    224000   152238.26    
    225000   156311.19    
    226000   153669.95    
    227000   156055.62    
    228000   149399.72    
    229000   160846.82    
    230000   157251.4     
    231000   154035.64    
    232000   153891.05    
    233000   156441.6     
    234000   151766.97    
    235000   150481.86    
    236000   154526.38    
    237000   151992.9     
    238000   153990.52    
    239000   152468.25    
    240000   154442.46    
    241000   153536.62    
    242000   156234.39    
    243000   157985.34    
    244000   152978.33    
    245000   158010.14    
    246000   155188.91    
    247000   151768.91    
    248000   152443.77    
    249000   155120.24    
    250000   155303.22    
    251000   154152.34    
    252000   154780.21    
    253000   154162.59    
    254000   152405.77    
    255000   156054.77    
    256000   150834.43    
    257000   154692.31    
    258000   152799.05    
    259000   155146.33    
    260000   155880.26    
    261000   159205       
    262000   149968.58    
    263000   151027.32    
    264000   151877.88    
    265000   155280.69    
    266000   153699.46    
    267000   153450.31    
    268000   156512.44    
    269000   153571.97    
    270000   152677.59    
    271000   153946.69    
    272000   154357.7     
    273000   152441.52    
    274000   153239.22    
    275000   154625.9     
    276000   151340.79    
    277000   153814.71    
    278000   154073.04    
    279000   152185.35    
    280000   151324.56    
    281000   151478.33    
    282000   154178.79    
    283000   152572.36    
    284000   153539.43    
    285000   156060.75    
    286000   155295.82    
    287000   153747.29    
    288000   154000.35    
    289000   157389.84    
    290000   155142.54    
    291000   152092.75    
    292000   150937.67    
    293000   154138.44    
    294000   154669.71    
    295000   154750.35    
    296000   154828.25    
    297000   157655       
    298000   152829.11    
    299000   153105.98    
    300000   156359.82    
    301000   152663.97    
    302000   152333.38    
    303000   151362.3     
    304000   152248.79    
    305000   153999.99    
    306000   154446.64    
    307000   157703.17    
    308000   157862.69    
    309000   151943.99    
    310000   150348.64    
    311000   152181.08    
    312000   151766.79    
    313000   152913.42    
    314000   157858.87    
    315000   152945.6     
    316000   156979.66    
    317000   156336.62    
    318000   154172.53    
    319000   159838.62    
    320000   154144.51    
    321000   152122.83    
    322000   156198.66    
    323000   154279.56    
    324000   154087.71    
    325000   153707.85    
    326000   154442.65    
    327000   153752.24    
    328000   149732.68    
    329000   154778.59    
    330000   154804.52    
    331000   152466.18    
    332000   156159.3     
    333000   154933.52    
    334000   154530.21    
    335000   151780.07    
    336000   152169.52    
    337000   153591.5     
    338000   153546.29    
    339000   158688.36    
    340000   157414.34    
    341000   153382.2     
    342000   154611.57    
    343000   151782.32    
    344000   153554.11    
    345000   154712.27    
    346000   154353.88    
    347000   156770.75    
    348000   153672.17    
    349000   152137.08    
    350000   152375.34    
    351000   157878.51    
    352000   154659.19    
    353000   154379.66    
    354000   154291.49    
    355000   155297.92    
    356000   153084.93    
    357000   155610.7     
    358000   155848.19    
    359000   155845.41    
    360000   153070.56    
    361000   157186.02    
    362000   152393.01    
    363000   158690.74    
    364000   155840.7     
    365000   155384       
    366000   151376.52    
    367000   153203.72    
    368000   153542.2     
    369000   156134.1     
    370000   155110.91    
    371000   152868.69    
    372000   150718.97    
    373000   153514.39    
    374000   155748.58    
    375000   158034.34    
    376000   157146.35    
    377000   154346.72    
    378000   152910.61    
    379000   154114.83    
    380000   153561.58    
    381000   150015.18    
    382000   153632.43    
    383000   156215.7     
    384000   155824.02    
    385000   154388.44    
    386000   151963.72    
    387000   151436.22    
    388000   152443.21    
    389000   153435.35    
    390000   153220.06    
    391000   154224.74    
    392000   155094.42    
    393000   154791.98    
    394000   154010.98    
    395000   153915.33    
    396000   151732.4     
    397000   156844.4     
    398000   149924.25    
    399000   153849.25    
    400000   155887.98    
    401000   155074.62    
    402000   149974.48    
    403000   153652.88    
    404000   154557.29    
    405000   154599.89    
    406000   155490.56    
    407000   152720.24    
    408000   155266.94    
    409000   151951       
    410000   152327.8     
    411000   153250.77    
    412000   153690.97    
    413000   152775.34    
    414000   153780.59    
    415000   156527.66    
    416000   152136.58    
    417000   153419.09    
    418000   154607.23    
    419000   156480.94    
    420000   150670.72    
    421000   154281.32    
    422000   155604.94    
    423000   153458.87    
    424000   154998.08    
    425000   153543.6     
    426000   150893.77    
    427000   151584.05    
    428000   157976.27    
    429000   152349.6     
    430000   157722.51    
    431000   152930.28    
    432000   150420.75    
    433000   152837.6     
    434000   151576.56    
    435000   153520.09    
    436000   153576.28    
    437000   154438.21    
    438000   153009.99    
    439000   153565.89    
    440000   154615       
    441000   157798.24    
    442000   156040.15    
    443000   153606.34    
    444000   152267.11    
    445000   154919.58    
    446000   152562.86    
    447000   154337.34    
    448000   155669.63    
    449000   153427.69    
    450000   156801.98    
    451000   153400.92    
    452000   154658.16    
    453000   155216.02    
    454000   154098.11    
    455000   156850.68    
    456000   156153.63    
    457000   153276.6     
    458000   155650.27    
    459000   154275.74    
    460000   155042.35    
    461000   156075.12    
    462000   153392.22    
    463000   156488.11    
    464000   151968.89    
    465000   152927.57    
    466000   154573.95    
    467000   153165.22    
    468000   153741.87    
    469000   153552.89    
    470000   150079.81    
    471000   155005.18    
    472000   150454.25    
    473000   156319.41    
    474000   154002.67    
    475000   148011.84    
    476000   154272.97    
    477000   155148.42    
    478000   152018.64    
    479000   149370.06    
    480000   149924.94    
    481000   157837.29    
    482000   152262.35    
    483000   154142.77    
    484000   156142.59    
    485000   152095.93    
    486000   152640.84    
    487000   151907.71    
    488000   152160.42    
    489000   154462.28    
    490000   157654.12    
    491000   157959.43    
    492000   151009.3     
    493000   156517.57    
    494000   153654.26    
    495000   157213.32    
    496000   147922.39    
    497000   151827.48    
    498000   152891.09    
    499000   156278.48    
    500000   154408.75    
    501000   154289.39    
    502000   154529.04    
    503000   156914.77    
    504000   154947.69    
    505000   157268.08    
    506000   155060.17    
    507000   151371.81    
    508000   149762.37    
    509000   155156.33    
    510000   155373.57    
    511000   154883       
    512000   151214.75    
    513000   154703.92    
    514000   152165.43    
    515000   152877.47    
    516000   153395.51    
    517000   154185.35    
    518000   153745.03    
    519000   153810.72    
    520000   151982.96    
    521000   156948.43    
    522000   154691.21    
    523000   150646.4     
    524000   153097.91    
    525000   149590.65    
    526000   155286.97    
    527000   155119.55    
    528000   154177.57    
    529000   153511.33    
    530000   157320.36    
    531000   156076.9     
    532000   151247.27    
    533000   154167.63    
    534000   154927.57    
    535000   152948.38    
    536000   151408.96    
    537000   154923.1     
    538000   161170.16    
    539000   152093.1     
    540000   150477       
    541000   150863.49    
    542000   152988.81    
    543000   159035.73    
    544000   153837.3     
    545000   154559.7     
    546000   151841.89    
    547000   153079.34    
    548000   154003.39    
    549000   153852.38    
    550000   153155.32    
    551000   155222.98    
    552000   153933.23    
    553000   153133.52    
    554000   150793.99    
    555000   154577.12    
    556000   151164.12    
    557000   154566.85    
    558000   153592.95    
    559000   155206.31    
    560000   156206.88    
    561000   155930.45    
    562000   152039.82    
    563000   156047.56    
    564000   152061.44    
    565000   150948.23    
    566000   149327.88    
    567000   153549.78    
    568000   152310.7     
    569000   155998.99    
    570000   154094.47    
    571000   152846.95    
    572000   151367.75    
    573000   156735.55    
    574000   154998.62    
    575000   150534.57    
    576000   152225.94    
    577000   156262.12    
    578000   153044.81    
    579000   156471.56    
    580000   153499.41    
    581000   156075.43    
    582000   154615.2     
    583000   152790.22    
    584000   152162.17    
    585000   150775.98    
    586000   157797.81    
    587000   154602.65    
    588000   156052.23    
    589000   156744.79    
    590000   156499.48    
    591000   155041.49    
    592000   156713.81    
    593000   151492.34    
    594000   155392.09    
    595000   156063.21    
    596000   155137.56    
    597000   151973.79    
    598000   157476.73    
    599000   154545.81    
    600000   156861.27    
    601000   156491.83    
    602000   157662.17    
    603000   156535.38    
    604000   154117.14    
    605000   155714.97    
    606000   155752.09    
    607000   155581.5     
    608000   156327.21    
    609000   154262.32    
    610000   155110.19    
    611000   160320.57    
    612000   154708.76    
    613000   152164.74    
    614000   158286.94    
    615000   156210.15    
    616000   151844.61    
    617000   151796.99    
    618000   153615.68    
    619000   154919       
    620000   153998.96    
    621000   155878.5     
    622000   153134.46    
    623000   154101.79    
    624000   153971.61    
    625000   149238.85    
    626000   156050.96    
    627000   153713.74    
    628000   151574.44    
    629000   155853.49    
    630000   154480.69    
    631000   153106.13    
    632000   155019.63    
    633000   151691.34    
    634000   153523.31    
    635000   153476.11    
    636000   151847.11    
    637000   154247.81    
    638000   156079.07    
    639000   149914.05    
    640000   151855.38    
    641000   155723.67    
    642000   154440.6     
    643000   152382.68    
    644000   149939.79    
    645000   158256.99    
    646000   155636.4     
    647000   152715.77    
    648000   155529.32    
    649000   153701.9     
    650000   159570.66    
    651000   155364.28    
    652000   150939.76    
    653000   154401.35    
    654000   154369.6     
    655000   152829.2     
    656000   155657.23    
    657000   155513.79    
    658000   155057.22    
    659000   152105.6     
    660000   154856.43    
    661000   157354.81    
    662000   152809.04    
    663000   149062.47    
    664000   152970.9     
    665000   152223.24    
    666000   153806.01    
    667000   156279.86    
    668000   153880.76    
    669000   151148.21    
    670000   153483.06    
    671000   155135.86    
    672000   155525.92    
    673000   153300.97    
    674000   152581.88    
    675000   151596.16    
    676000   153791.55    
    677000   155609.03    
    678000   158376.05    
    679000   152833.96    
    680000   157709.51    
    681000   149442.14    
    682000   155264.03    
    683000   155733.57    
    684000   153469.18    
    685000   156975.34    
    686000   152341.37    
    687000   155347.74    
    688000   153972.78    
    689000   152266.78    
    690000   160049.57    
    691000   156164.34    
    692000   153430.27    
    693000   153767.83    
    694000   154911.09    
    695000   155756.55    
    696000   151719.57    
    697000   156389.59    
    698000   153196.08    
    699000   151549.15    
    700000   151598.92    
    701000   151094.19    
    702000   155654.95    
    703000   150294.43    
    704000   155558.14    
    705000   155440.69    
    706000   153368.47    
    707000   154755.61    
    708000   154659.5     
    709000   153209.42    
    710000   151435.01    
    711000   150901.07    
    712000   151392.1     
    713000   156335.5     
    714000   154152.7     
    715000   153657.65    
    716000   156448.78    
    717000   157705.12    
    718000   151145.45    
    719000   154323.57    
    720000   154942.6     
    721000   155450.24    
    722000   155043.1     
    723000   152679.39    
    724000   153847.41    
    725000   154816.33    
    726000   151963.01    
    727000   155636.97    
    728000   156801.82    
    729000   152624.13    
    730000   151498.68    
    731000   155498.23    
    732000   154709.68    
    733000   155704.26    
    734000   150440.12    
    735000   156667.16    
    736000   150622.09    
    737000   152082.95    
    738000   157677.16    
    739000   155662.73    
    740000   155903.28    
    741000   155257.59    
    742000   154501.64    
    743000   154271.99    
    744000   158161.59    
    745000   156371.93    
    746000   152593.78    
    747000   159097.85    
    748000   156087.9     
    749000   151437.49    
    750000   154954.28    
    751000   154987.65    
    752000   154592.83    
    753000   151540.23    
    754000   152678.71    
    755000   156991.54    
    756000   152611.73    
    757000   150525.55    
    758000   152412.29    
    759000   157607.66    
    760000   153646.87    
    761000   157548.78    
    762000   151501.13    
    763000   152809.55    
    764000   156319.22    
    765000   154484.83    
    766000   155587.69    
    767000   156837.56    
    768000   153283.6     
    769000   155111.11    
    770000   156281.73    
    771000   153601.37    
    772000   154173.61    
    773000   153549.86    
    774000   154391.07    
    775000   153918.63    
    776000   154081.11    
    777000   155177.09    
    778000   150324.11    
    779000   153863.19    
    780000   157138.53    
    781000   154124.69    
    782000   156362.88    
    783000   155726.93    
    784000   156847.54    
    785000   153341.02    
    786000   153275.76    
    787000   149078.51    
    788000   152356.02    
    789000   150516.72    
    790000   154841.04    
    791000   156043.61    
    792000   154487.29    
    793000   153449.39    
    794000   155998.19    
    795000   156509.99    
    796000   155527.79    
    797000   153697.17    
    798000   152284.92    
    799000   157971.29    
    800000   150655.17    
    801000   154557.09    
    802000   152601.48    
    803000   151317.42    
    804000   150082.1     
    805000   154760.94    
    806000   148842.21    
    807000   152426.2     
    808000   155943.15    
    809000   155987.51    
    810000   152409.9     
    811000   152080.74    
    812000   158048.57    
    813000   155439.34    
    814000   158056.52    
    815000   152463.51    
    816000   154922.32    
    817000   153234.84    
    818000   154508.22    
    819000   158698.36    
    820000   156969.11    
    821000   154578.1     
    822000   157819.67    
    823000   153377.16    
    824000   152451.58    
    825000   152666.72    
    826000   154761.58    
    827000   157351.74    
    828000   156347.95    
    829000   154081.69    
    830000   162374.07    
    831000   154196.25    
    832000   155509.1     
    833000   153453.37    
    834000   151245.26    
    835000   154435.93    
    836000   157375.76    
    837000   150807.98    
    838000   155818.81    
    839000   155852.44    
    840000   158950.26    
    841000   156884.72    
    842000   150989.2     
    843000   157728.63    
    844000   155176.07    
    845000   150920.78    
    846000   153017.25    
    847000   155751.38    
    848000   157547.63    
    849000   157099.72    
    850000   151917.55    
    851000   153339.17    
    852000   153233.87    
    853000   153812.11    
    854000   155293.18    
    855000   158000.91    
    856000   152533.73    
    857000   154089.09    
    858000   154245.29    
    859000   153556.2     
    860000   154128.92    
    861000   154531.77    
    862000   154546.62    
    863000   157009.32    
    864000   156691.52    
    865000   157624.77    
    866000   152793.12    
    867000   154810.38    
    868000   157775.68    
    869000   158876.84    
    870000   151067.79    
    871000   150262.35    
    872000   155836.09    
    873000   154630.35    
    874000   151183.14    
    875000   156219.64    
    876000   153769.73    
    877000   157730.38    
    878000   151710.29    
    879000   150374.05    
    880000   152569.64    
    881000   151103.62    
    882000   152468.93    
    883000   154161.95    
    884000   153981.5     
    885000   157541.82    
    886000   154255.51    
    887000   156487.17    
    888000   156264.78    
    889000   152635.76    
    890000   150328.04    
    891000   151630.16    
    892000   148744.08    
    893000   156452.19    
    894000   151275.83    
    895000   152755.69    
    896000   153943.81    
    897000   152305.73    
    898000   152642.35    
    899000   150374.56    
    900000   151126.33    
    901000   151730.3     
    902000   152224.81    
    903000   156742.75    
    904000   150756       
    905000   152842.71    
    906000   152884.05    
    907000   153435.01    
    908000   149826.53    
    909000   156166.55    
    910000   155132.83    
    911000   157711.21    
    912000   154983.53    
    913000   156648.2     
    914000   153490.47    
    915000   152997.59    
    916000   149485.9     
    917000   152901.62    
    918000   149657.57    
    919000   153367.32    
    920000   157929.95    
    921000   151931.13    
    922000   153516.8     
    923000   156564.36    
    924000   150115.41    
    925000   155165.99    
    926000   154830.36    
    927000   155202.19    
    928000   156236.4     
    929000   155056.68    
    930000   153539.84    
    931000   152993       
    932000   155825.73    
    933000   151327.86    
    934000   153587.97    
    935000   152410.01    
    936000   153587.65    
    937000   154650.71    
    938000   151746.95    
    939000   153058.45    
    940000   155428.4     
    941000   154500.48    
    942000   153372.85    
    943000   155409.44    
    944000   152355.28    
    945000   152808.14    
    946000   152561.9     
    947000   155693.04    
    948000   155773.8     
    949000   152560.23    
    950000   151680.21    
    951000   155987.8     
    952000   157440.14    
    953000   156403.02    
    954000   153576.72    
    955000   153020.21    
    956000   154433.5     
    957000   156761.48    
    958000   157043.05    
    959000   156810.19    
    960000   154058.19    
    961000   152027.17    
    962000   153826.35    
    963000   155968.29    
    964000   152738.01    
    965000   151817.4     
    966000   154399.97    
    967000   150836.63    
    968000   154840.11    
    969000   155975.69    
    970000   151961.42    
    971000   151969.15    
    972000   152832.58    
    973000   156691.43    
    974000   153608.34    
    975000   153339.56    
    976000   155015.52    
    977000   152179.56    
    978000   156190.37    
    979000   156448.21    
    980000   154243.11    
    981000   157257.21    
    982000   153770.54    
    983000   157931.15    
    984000   154435.53    
    985000   153057.54    
    986000   152625.53    
    987000   156544.95    
    988000   157608.02    
    989000   155607.25    
    990000   157743.09    
    991000   154159.44    
    992000   155286.38    
    993000   157119.39    
    994000   152409.78    
    995000   154713.42    
    996000   150463.47    
    997000   155532.63    
    998000   148920.76    
    999000   157438.06    
   1000000   154048.23    
   1001000   156548.97    
   1002000   155167.04    
   1003000   155814.52    
   1004000   156115.96    
   1005000   158877.95    
   1006000   154080.27    
   1007000   152637.24    
   1008000   147511.7     
   1009000   147375.01    
   1010000   158825.85    
   1011000   154862.86    
   1012000   157985.8     
   1013000   156231.1     
   1014000   152013.28    
   1015000   156513.83    
   1016000   152685.93    
   1017000   155162.53    
   1018000   151313.01    
   1019000   154445.75    
   1020000   154138.17    
   1021000   156531.4     
   1022000   151768.49    
   1023000   158419.83    
   1024000   154464.33    
   1025000   152845.74    
   1026000   155115.23    
   1027000   154592.13    
   1028000   154522.62    
   1029000   154651.22    
   1030000   157126.48    
   1031000   154236.63    
   1032000   151072.55    
   1033000   154908.28    
   1034000   153151.03    
   1035000   153011.68    
   1036000   157610.47    
   1037000   156660.21    
   1038000   155361.5     
   1039000   152443.36    
   1040000   155792.63    
   1041000   157395.81    
   1042000   150646.83    
   1043000   152628.61    
   1044000   153814.04    
   1045000   153887       
   1046000   153340.59    
   1047000   154972.96    
   1048000   154987.11    
   1049000   155926.33    
   1050000   151497.41    
   1051000   154535.03    
   1052000   157485.65    
   1053000   155787.36    
   1054000   154649.77    
   1055000   155482.5     
   1056000   154206.59    
   1057000   157074.32    
   1058000   154241.45    
   1059000   154211.52    
   1060000   154600.49    
   1061000   150920.56    
   1062000   152353.62    
   1063000   154426.79    
   1064000   152022.32    
   1065000   153596.05    
   1066000   153544.59    
   1067000   153193.18    
   1068000   152480.97    
   1069000   153678.52    
   1070000   151731.47    
   1071000   151822.44    
   1072000   155973.3     
   1073000   154064.15    
   1074000   152999.13    
   1075000   148684.72    
   1076000   156515.78    
   1077000   152361.88    
   1078000   152358.13    
   1079000   156693.66    
   1080000   157232.02    
   1081000   153479.2     
   1082000   152735.68    
   1083000   154194.61    
   1084000   155213.27    
   1085000   152381.33    
   1086000   154824.39    
   1087000   157034.07    
   1088000   156893.89    
   1089000   153361.31    
   1090000   151566.47    
   1091000   157237.05    
   1092000   155145.44    
   1093000   153246.58    
   1094000   150065.31    
   1095000   153554.03    
   1096000   156229.56    
   1097000   155034.7     
   1098000   155329.17    
   1099000   153052.72    
   1100000   153016.93    
   1101000   154274.01    
   1102000   155129.54    
   1103000   150893.17    
   1104000   158682.68    
   1105000   154720.43    
   1106000   154927.76    
   1107000   150709.21    
   1108000   150477.93    
   1109000   158272.49    
   1110000   157584.39    
   1111000   154011.86    
   1112000   156809.03    
   1113000   152278.89    
   1114000   154261.61    
   1115000   155115.15    
   1116000   155236.08    
   1117000   153105.44    
   1118000   154683.49    
   1119000   153115.78    
   1120000   156123.36    
   1121000   153318.89    
   1122000   154186.37    
   1123000   152809.53    
   1124000   153391.97    
   1125000   156816       
   1126000   155291.39    
   1127000   154588.94    
   1128000   153710.33    
   1129000   151399.48    
   1130000   155782.13    
   1131000   151684.11    
   1132000   155375.93    
   1133000   152646.34    
   1134000   153283.71    
   1135000   151628.62    
   1136000   153477.32    
   1137000   151124.7     
   1138000   151016.66    
   1139000   148828.2     
   1140000   150884.33    
   1141000   154781.27    
   1142000   157172.94    
   1143000   156952.14    
   1144000   151785.5     
   1145000   155558.21    
   1146000   156943       
   1147000   154702.92    
   1148000   152684.07    
   1149000   150753.4     
   1150000   155287.12    
   1151000   153515.14    
   1152000   155590.88    
   1153000   149484.3     
   1154000   153736.65    
   1155000   153236.44    
   1156000   155092.05    
   1157000   156153.82    
   1158000   153921.96    
   1159000   151585.15    
   1160000   157397.39    
   1161000   154854.14    
   1162000   157927.63    
   1163000   154626.99    
   1164000   151452.58    
   1165000   154253.94    
   1166000   153564.29    
   1167000   152406.87    
   1168000   156185.33    
   1169000   154945.6     
   1170000   155968.26    
   1171000   156701.42    
   1172000   152464.62    
   1173000   150757.53    
   1174000   150120.28    
   1175000   154889.41    
   1176000   153633.15    
   1177000   156589.43    
   1178000   149897.65    
   1179000   151436.89    
   1180000   156306.34    
   1181000   157429.22    
   1182000   153883.13    
   1183000   157241.93    
   1184000   160390.51    
   1185000   149636.57    
   1186000   158651.3     
   1187000   153650.78    
   1188000   155399.76    
   1189000   158365.62    
   1190000   157611.07    
   1191000   154294.42    
   1192000   157762.74    
   1193000   158025.04    
   1194000   155314.53    
   1195000   153400.48    
   1196000   154006.71    
   1197000   156018.93    
   1198000   154157.49    
   1199000   153743.44    
   1200000   152520.77    
   1201000   151987.84    
   1202000   150109.78    
   1203000   154667.68    
   1204000   156217.09    
   1205000   151903       
   1206000   155575.31    
   1207000   158330.9     
   1208000   155008.22    
   1209000   154832.83    
   1210000   154295.93    
   1211000   149167.35    
   1212000   154625.08    
   1213000   150796.01    
   1214000   152778.33    
   1215000   148059.85    
   1216000   154630.45    
   1217000   155196.93    
   1218000   155084.91    
   1219000   154505.99    
   1220000   150994.52    
   1221000   150058.95    
   1222000   152607.11    
   1223000   154642.32    
   1224000   154060.93    
   1225000   150612.16    
   1226000   159726.23    
   1227000   156493.84    
   1228000   154587.93    
   1229000   153303.44    
   1230000   154843.13    
   1231000   157564.22    
   1232000   151468.36    
   1233000   152937.2     
   1234000   153222.51    
   1235000   153446.42    
   1236000   154506.44    
   1237000   157277.69    
   1238000   153762.15    
   1239000   156140.33    
   1240000   152831.42    
   1241000   153129.73    
   1242000   154810.4     
   1243000   153217.84    
   1244000   152371.05    
   1245000   153823.85    
   1246000   159190.67    
   1247000   156302.9     
   1248000   150224.88    
   1249000   154121.59    
   1250000   157798.4     
   1251000   157915.98    
   1252000   155142.9     
   1253000   152772.48    
   1254000   152841.07    
   1255000   152770.17    
   1256000   154446.28    
   1257000   154369.86    
   1258000   153787.37    
   1259000   154135.9     
   1260000   152923.45    
   1261000   153805.88    
   1262000   154036.28    
   1263000   157741.03    
   1264000   153582.83    
   1265000   155358.97    
   1266000   152371.77    
   1267000   154006.16    
   1268000   153762.71    
   1269000   151185.21    
   1270000   154541.83    
   1271000   149608.9     
   1272000   154015.49    
   1273000   156284.4     
   1274000   154964.72    
   1275000   154976.72    
   1276000   153512.97    
   1277000   153285.18    
   1278000   155132.95    
   1279000   153211.5     
   1280000   155378.48    
   1281000   155793.76    
   1282000   152282.29    
   1283000   158332.88    
   1284000   154669.75    
   1285000   158997.87    
   1286000   153145.73    
   1287000   157876.61    
   1288000   153880.43    
   1289000   152697.49    
   1290000   155163.71    
   1291000   157325.63    
   1292000   154674.54    
   1293000   154422.75    
   1294000   155116.11    
   1295000   156755.66    
   1296000   157944.73    
   1297000   153196.49    
   1298000   159624.69    
   1299000   155110.11    
   1300000   151615.57    
   1301000   152809.52    
   1302000   153065.76    
   1303000   156049.43    
   1304000   158160.31    
   1305000   155108.28    
   1306000   154098.76    
   1307000   154176.79    
   1308000   151246.19    
   1309000   150492.21    
   1310000   151855.71    
   1311000   156886.15    
   1312000   153861       
   1313000   152493.22    
   1314000   153334.82    
   1315000   154214.31    
   1316000   157536.17    
   1317000   154660.28    
   1318000   152319.61    
   1319000   153538.52    
   1320000   150156.02    
   1321000   155260.5     
   1322000   155117.6     
   1323000   152147.44    
   1324000   153545.91    
   1325000   154999.75    
   1326000   153700.02    
   1327000   157784.85    
   1328000   150680.4     
   1329000   154709.76    
   1330000   150038.65    
   1331000   152846.75    
   1332000   155116.41    
   1333000   157964.49    
   1334000   158013.34    
   1335000   155313.23    
   1336000   160034.68    
   1337000   157811.69    
   1338000   153586.4     
   1339000   153473.77    
   1340000   154119.53    
   1341000   152415.53    
   1342000   156936.33    
   1343000   153593.22    
   1344000   155624.16    
   1345000   156188.78    
   1346000   155869.36    
   1347000   151988.92    
   1348000   153236.54    
   1349000   151721.59    
   1350000   151632.18    
   1351000   154646.13    
   1352000   152582.84    
   1353000   152615.24    
   1354000   151907.74    
   1355000   152919.83    
   1356000   154377.32    
   1357000   152756.4     
   1358000   150721.42    
   1359000   152525.69    
   1360000   153721.16    
   1361000   153420.66    
   1362000   153264.32    
   1363000   156796.93    
   1364000   153685.63    
   1365000   155526.38    
   1366000   153669.12    
   1367000   154684.59    
   1368000   156483.58    
   1369000   153529.53    
   1370000   153448.24    
   1371000   150619.04    
   1372000   153647.18    
   1373000   151598.32    
   1374000   155621.13    
   1375000   155186.66    
   1376000   155990.13    
   1377000   151154.44    
   1378000   154396.51    
   1379000   151393.01    
   1380000   152808.44    
   1381000   155186.67    
   1382000   152888.97    
   1383000   145732.8     
   1384000   157276.36    
   1385000   148648.63    
   1386000   153973.03    
   1387000   154884.56    
   1388000   151023.62    
   1389000   156529.36    
   1390000   153290.46    
   1391000   153144.78    
   1392000   155238.68    
   1393000   157736.12    
   1394000   155229.6     
   1395000   151764.08    
   1396000   151306.97    
   1397000   152063.4     
   1398000   150183.72    
   1399000   152038       
   1400000   151756.92    
   1401000   157279.11    
   1402000   157492.01    
   1403000   158054.29    
   1404000   154341.18    
   1405000   153893.49    
   1406000   152838.57    
   1407000   155286.24    
   1408000   152073.76    
   1409000   153043.3     
   1410000   154649.35    
   1411000   150876.23    
   1412000   157397.77    
   1413000   150548.62    
   1414000   153636.19    
   1415000   152321.67    
   1416000   154370.76    
   1417000   158605.93    
   1418000   155896.54    
   1419000   154727.15    
   1420000   153643.37    
   1421000   155033.08    
   1422000   150337.77    
   1423000   152732.03    
   1424000   156496.44    
   1425000   157871.25    
   1426000   151860.52    
   1427000   155456       
   1428000   153921.9     
   1429000   155330.5     
   1430000   152197.71    
   1431000   156272.7     
   1432000   155115.48    
   1433000   157599.52    
   1434000   156027.94    
   1435000   152585.5     
   1436000   151516.52    
   1437000   156653.92    
   1438000   156736.2     
   1439000   152927.87    
   1440000   153697.55    
   1441000   153165.59    
   1442000   148633.79    
   1443000   153841.73    
   1444000   155424.82    
   1445000   154179.06    
   1446000   152926.99    
   1447000   154850.01    
   1448000   155796.97    
   1449000   153913.91    
   1450000   155830.11    
   1451000   155532.9     
   1452000   156185.81    
   1453000   152123.27    
   1454000   151341.72    
   1455000   152361.54    
   1456000   154512.31    
   1457000   154107.65    
   1458000   154514.53    
   1459000   152444.53    
   1460000   154607.23    
   1461000   156698.61    
   1462000   153614.59    
   1463000   151729.62    
   1464000   154248.34    
   1465000   152211.15    
   1466000   153230.69    
   1467000   154585.27    
   1468000   155064.78    
   1469000   153249.76    
   1470000   154405.19    
   1471000   151963.68    
   1472000   152397.88    
   1473000   152832.29    
   1474000   153675.02    
   1475000   155323.81    
   1476000   151735.53    
   1477000   150044.85    
   1478000   154300.92    
   1479000   152641.6     
   1480000   157138.78    
   1481000   157756.17    
   1482000   157086.04    
   1483000   154081.17    
   1484000   152440.95    
   1485000   156673.4     
   1486000   153394.48    
   1487000   155552.06    
   1488000   154263.54    
   1489000   158389.75    
   1490000   154092.25    
   1491000   155562.47    
   1492000   156569.15    
   1493000   157616.5     
   1494000   153544.92    
   1495000   153409.45    
   1496000   154334.47    
   1497000   152950.72    
   1498000   149460.09    
   1499000   154784.78    
   1500000   154595.19    
   1501000   159626.5     
   1502000   154012.77    
   1503000   156650.65    
   1504000   152751.58    
   1505000   156372.18    
   1506000   152325.71    
   1507000   152610.71    
   1508000   151924.07    
   1509000   151946.84    
   1510000   153303       
   1511000   154909.65    
   1512000   155774.55    
   1513000   155675.12    
   1514000   152355.85    
   1515000   154503.43    
   1516000   153448.9     
   1517000   152849.1     
   1518000   154056.88    
   1519000   159373.48    
   1520000   152358.39    
   1521000   156738.42    
   1522000   152972.06    
   1523000   155430.06    
   1524000   158146.74    
   1525000   150400.91    
   1526000   152437.75    
   1527000   152001.72    
   1528000   150543.8     
   1529000   159897.97    
   1530000   158248.86    
   1531000   154021.14    
   1532000   153729.56    
   1533000   154919.07    
   1534000   157346.68    
   1535000   156203.61    
   1536000   152703.27    
   1537000   155611.08    
   1538000   157540.56    
   1539000   158172.47    
   1540000   152005.93    
   1541000   153377.71    
   1542000   157576.57    
   1543000   153496.05    
   1544000   152351.35    
   1545000   157346.36    
   1546000   154622.57    
   1547000   152705.29    
   1548000   152134.04    
   1549000   154368.31    
   1550000   159533.73    
   1551000   155350.99    
   1552000   153655.11    
   1553000   154513.68    
   1554000   151015.26    
   1555000   158225.54    
   1556000   155736.56    
   1557000   149332.84    
   1558000   156496.47    
   1559000   154122.41    
   1560000   150920.3     
   1561000   160958.78    
   1562000   159880.04    
   1563000   154219.5     
   1564000   151944.89    
   1565000   153846.58    
   1566000   155481.73    
   1567000   152947.09    
   1568000   150449.34    
   1569000   159012.95    
   1570000   153746.81    
   1571000   155820.36    
   1572000   155429.94    
   1573000   155067.54    
   1574000   152486.16    
   1575000   154934.6     
   1576000   152663.71    
   1577000   154857.88    
   1578000   155323.33    
   1579000   154317.62    
   1580000   155121.52    
   1581000   156024.25    
   1582000   151494.6     
   1583000   151912.69    
   1584000   155668.3     
   1585000   151102.2     
   1586000   153476.66    
   1587000   153765.19    
   1588000   154623.6     
   1589000   152897.88    
   1590000   158273.93    
   1591000   154909.38    
   1592000   153672.62    
   1593000   151004.49    
   1594000   153306.06    
   1595000   153455.12    
   1596000   151912.18    
   1597000   154231.02    
   1598000   151826.69    
   1599000   152291.75    
   1600000   155638.46    
   1601000   152693.32    
   1602000   156300.33    
   1603000   155907.28    
   1604000   151128.4     
   1605000   148839.64    
   1606000   158140.19    
   1607000   158203.84    
   1608000   152430.83    
   1609000   152255       
   1610000   154233.05    
   1611000   151934.13    
   1612000   155720.83    
   1613000   154707.97    
   1614000   152571.47    
   1615000   151953.19    
   1616000   153560.07    
   1617000   152100.25    
   1618000   154226.47    
   1619000   153228.05    
   1620000   151034.17    
   1621000   153775.3     
   1622000   154008.32    
   1623000   152496.02    
   1624000   151712.83    
   1625000   155395.02    
   1626000   156121.71    
   1627000   152989.27    
   1628000   153986.6     
   1629000   153651.72    
   1630000   157533.14    
   1631000   155499.16    
   1632000   156601.57    
   1633000   151397.74    
   1634000   153508.49    
   1635000   152773.03    
   1636000   151350.65    
   1637000   154820.4     
   1638000   153212.24    
   1639000   153950.93    
   1640000   157202.75    
   1641000   153012.34    
   1642000   155990.96    
   1643000   154251.19    
   1644000   152646.07    
   1645000   155535.21    
   1646000   153922.59    
   1647000   156126.62    
   1648000   152093.57    
   1649000   153018.96    
   1650000   154560.94    
   1651000   151448.69    
   1652000   153526.06    
   1653000   154867.26    
   1654000   151578.64    
   1655000   155548.63    
   1656000   154946.92    
   1657000   157093.56    
   1658000   154062.28    
   1659000   156581.84    
   1660000   151465.24    
   1661000   152205.96    
   1662000   155526.8     
   1663000   152000.55    
   1664000   153515.79    
   1665000   157392.59    
   1666000   155793       
   1667000   156653.17    
   1668000   154315.41    
   1669000   156116.69    
   1670000   152840.91    
   1671000   152655.62    
   1672000   151329.17    
   1673000   155005.74    
   1674000   157332.44    
   1675000   155754.43    
   1676000   151151.85    
   1677000   153346.63    
   1678000   153346.29    
   1679000   154609.13    
   1680000   158171.53    
   1681000   155792.52    
   1682000   155718.23    
   1683000   152939.33    
   1684000   152891.09    
   1685000   153447.56    
   1686000   153369.83    
   1687000   156328.19    
   1688000   154202.35    
   1689000   151250.17    
   1690000   153496.53    
   1691000   152461.53    
   1692000   152795.35    
   1693000   157084.4     
   1694000   154222.78    
   1695000   155910.8     
   1696000   151363.04    
   1697000   154020.4     
   1698000   154764.85    
   1699000   153107.23    
   1700000   154954.87    
   1701000   154157.87    
   1702000   153112.28    
   1703000   155681.41    
   1704000   154674.58    
   1705000   152151       
   1706000   158103.32    
   1707000   154790.83    
   1708000   153232.67    
   1709000   153600.65    
   1710000   157872.65    
   1711000   154956.67    
   1712000   152078.95    
   1713000   158677.03    
   1714000   154732.75    
   1715000   153978.85    
   1716000   155287.58    
   1717000   152623.33    
   1718000   152613.51    
   1719000   152511.41    
   1720000   153982.88    
   1721000   153901.95    
   1722000   153297.68    
   1723000   148602.04    
   1724000   156790.39    
   1725000   155559.6     
   1726000   154861.81    
   1727000   152536.71    
   1728000   157743.09    
   1729000   151737.62    
   1730000   151607.47    
   1731000   154608.45    
   1732000   152888.09    
   1733000   157018.84    
   1734000   151215.5     
   1735000   157501.04    
   1736000   155381.47    
   1737000   153134.16    
   1738000   156237.55    
   1739000   155131.41    
   1740000   156457.15    
   1741000   156927.78    
   1742000   155506.48    
   1743000   154314.56    
   1744000   155008.23    
   1745000   154251.6     
   1746000   156148.25    
   1747000   151598.53    
   1748000   152065.39    
   1749000   152443.82    
   1750000   155983.46    
   1751000   153674.77    
   1752000   156438.41    
   1753000   152818.5     
   1754000   154053.76    
   1755000   153051.39    
   1756000   153084.37    
   1757000   153358.49    
   1758000   159038.04    
   1759000   155296.3     
   1760000   150588.16    
   1761000   153292       
   1762000   157179.6     
   1763000   154040.07    
   1764000   156542.32    
   1765000   156083.4     
   1766000   153163.38    
   1767000   154336.34    
   1768000   157022.83    
   1769000   155536.98    
   1770000   156503.99    
   1771000   154311.34    
   1772000   155525.97    
   1773000   157151.28    
   1774000   155745.21    
   1775000   154554.04    
   1776000   152645.4     
   1777000   155544.31    
   1778000   152973.43    
   1779000   155028.24    
   1780000   154655.53    
   1781000   155751.55    
   1782000   152899.53    
   1783000   153179.83    
   1784000   152562       
   1785000   157125.32    
   1786000   152508.93    
   1787000   150793.3     
   1788000   153300.54    
   1789000   152265.83    
   1790000   155997.6     
   1791000   154296.91    
   1792000   153133.83    
   1793000   149962.87    
   1794000   156927.81    
   1795000   155643.82    
   1796000   154243.82    
   1797000   155305.44    
   1798000   152793.77    
   1799000   153712.98    
   1800000   151301.22    
   1801000   156402.22    
   1802000   156048.65    
   1803000   156835.94    
   1804000   156240.9     
   1805000   154235.71    
   1806000   154934.85    
   1807000   156021.91    
   1808000   156042.56    
   1809000   157851.03    
   1810000   154745.08    
   1811000   152571.05    
   1812000   154137.98    
   1813000   158933.89    
   1814000   152916.77    
   1815000   155555.96    
   1816000   154975.09    
   1817000   157734.01    
   1818000   147811.14    
   1819000   155717.25    
   1820000   156620.34    
   1821000   157879.08    
   1822000   152946.69    
   1823000   152482.63    
   1824000   156900.58    
   1825000   152371.8     
   1826000   152974.19    
   1827000   154900.32    
   1828000   155193.31    
   1829000   149582.01    
   1830000   151813.83    
   1831000   153218.47    
   1832000   153567.57    
   1833000   156877.76    
   1834000   152869.32    
   1835000   153363.45    
   1836000   155547.34    
   1837000   155284.98    
   1838000   155344.3     
   1839000   155081.44    
   1840000   153951.46    
   1841000   156842.71    
   1842000   153424.92    
   1843000   153522.35    
   1844000   151708.47    
   1845000   150119.44    
   1846000   150385.54    
   1847000   155177.16    
   1848000   152221.6     
   1849000   155347.22    
   1850000   154331.77    
   1851000   150802.12    
   1852000   155807.1     
   1853000   152565.8     
   1854000   153619.17    
   1855000   151633.23    
   1856000   151963.18    
   1857000   156855.31    
   1858000   151602.62    
   1859000   155143.57    
   1860000   151435.12    
   1861000   161336.39    
   1862000   157312.02    
   1863000   153680.94    
   1864000   156581.53    
   1865000   153423.11    
   1866000   155176.86    
   1867000   151813.92    
   1868000   152674.53    
   1869000   151894.63    
   1870000   153525.13    
   1871000   154252.13    
   1872000   156730.25    
   1873000   151532.08    
   1874000   156759.23    
   1875000   152815.44    
   1876000   154441.72    
   1877000   154854.16    
   1878000   155769.75    
   1879000   152686.9     
   1880000   152256.46    
   1881000   156108.81    
   1882000   154625.23    
   1883000   153075.53    
   1884000   153861.14    
   1885000   155319.66    
   1886000   156555.35    
   1887000   156431.43    
   1888000   152271.38    
   1889000   153944.31    
   1890000   152754.77    
   1891000   155841.53    
   1892000   152299.25    
   1893000   154246.13    
   1894000   153478.3     
   1895000   153393.4     
   1896000   155182.26    
   1897000   152903.44    
   1898000   158119.37    
   1899000   157252.54    
   1900000   153067.63    
   1901000   153062.01    
   1902000   152839.9     
   1903000   156698.01    
   1904000   155835.66    
   1905000   152381.53    
   1906000   153735.48    
   1907000   159535.7     
   1908000   155580.94    
   1909000   153928.71    
   1910000   150981.97    
   1911000   155569.95    
   1912000   154034.93    
   1913000   149736.49    
   1914000   154364.2     
   1915000   153916.17    
   1916000   156413.39    
   1917000   159374.35    
   1918000   156750.52    
   1919000   150410.26    
   1920000   155968.63    
   1921000   150203.15    
   1922000   153552.4     
   1923000   160541.22    
   1924000   152242.46    
   1925000   157498.95    
   1926000   155041.1     
   1927000   153375.59    
   1928000   154999.63    
   1929000   152634.96    
   1930000   151929.31    
   1931000   157214.24    
   1932000   154473.14    
   1933000   154811.37    
   1934000   151728.25    
   1935000   156004.42    
   1936000   152249.19    
   1937000   153346.49    
   1938000   155762.21    
   1939000   152019.8     
   1940000   155026.62    
   1941000   152246.45    
   1942000   150221.28    
   1943000   156311.34    
   1944000   155388.27    
   1945000   151483.34    
   1946000   153741.19    
   1947000   154551.57    
   1948000   152714.72    
   1949000   156477.99    
   1950000   154897.48    
   1951000   152152.5     
   1952000   154359.03    
   1953000   151891.22    
   1954000   155670.24    
   1955000   152053.41    
   1956000   157178.7     
   1957000   150402.91    
   1958000   158072.22    
   1959000   148792.08    
   1960000   156127.02    
   1961000   154201.05    
   1962000   152813.49    
   1963000   152900.77    
   1964000   156981.42    
   1965000   155651.4     
   1966000   154769.9     
   1967000   154709.14    
   1968000   153798.87    
   1969000   154638.41    
   1970000   155741.31    
   1971000   154277.46    
   1972000   155404.81    
   1973000   151098.2     
   1974000   152759.28    
   1975000   151521.8     
   1976000   153309.44    
   1977000   150892.05    
   1978000   155402.94    
   1979000   152968.18    
   1980000   152759.25    
   1981000   157915.93    
   1982000   151357.98    
   1983000   157479.31    
   1984000   151843.42    
   1985000   154616.9     
   1986000   155581.75    
   1987000   151428.35    
   1988000   154309.87    
   1989000   152854.72    
   1990000   151081.34    
   1991000   153339.69    
   1992000   150731.77    
   1993000   155546.51    
   1994000   157315.14    
   1995000   150481.28    
   1996000   151624.72    
   1997000   154965.12    
   1998000   152363.08    
   1999000   155830.52    
   2000000   153272.45    
   2001000   157338.19    
   2002000   152401.84    
   2003000   155993.18    
   2004000   153705.36    
   2005000   150093.43    
   2006000   151729.05    
   2007000   157002.83    
   2008000   155628.57    
   2009000   154935.26    
   2010000   154795.94    
   2011000   156214.78    
   2012000   159315.57    
   2013000   155913.82    
   2014000   152539.31    
   2015000   151700.34    
   2016000   157176.38    
   2017000   151448.1     
   2018000   152907.98    
   2019000   154232.08    
   2020000   152887.15    
   2021000   156544.56    
   2022000   152199.27    
   2023000   159621.77    
   2024000   154010       
   2025000   154552.55    
   2026000   155294.78    
   2027000   156526.96    
   2028000   154120.15    
   2029000   155455.23    
   2030000   156031.48    
   2031000   153635.46    
   2032000   158145.61    
   2033000   152470.34    
   2034000   152839.97    
   2035000   157851.71    
   2036000   151342.78    
   2037000   155348.57    
   2038000   153816.08    
   2039000   156253.61    
   2040000   154042.73    
   2041000   155725.67    
   2042000   155708.62    
   2043000   157608.87    
   2044000   154363.44    
   2045000   154742.7     
   2046000   153893.41    
   2047000   153470.43    
   2048000   154419.01    
   2049000   154100.81    
   2050000   158039.07    
   2051000   155810.34    
   2052000   156426.99    
   2053000   154671.84    
   2054000   150939.45    
   2055000   152325.35    
   2056000   155056.77    
   2057000   149636.23    
   2058000   153202.56    
   2059000   156611.75    
   2060000   152536.59    
   2061000   154635.08    
   2062000   154498.45    
   2063000   153067.92    
   2064000   152144.5     
   2065000   150308.35    
   2066000   151671.91    
   2067000   149777.12    
   2068000   155864.95    
   2069000   154809.24    
   2070000   152327.58    
   2071000   153850.05    
   2072000   153449.27    
   2073000   153779.54    
   2074000   153809.47    
   2075000   154716.68    
   2076000   152931.98    
   2077000   154318.81    
   2078000   152463.96    
   2079000   150236.1     
   2080000   154489.17    
   2081000   154695.55    
   2082000   154558.38    
   2083000   157732.97    
   2084000   155518.86    
   2085000   154605.15    
   2086000   149652.77    
   2087000   154322.99    
   2088000   151209.21    
   2089000   152527.5     
   2090000   157092.65    
   2091000   159107.28    
   2092000   153661.58    
   2093000   152728       
   2094000   150617.09    
   2095000   161829.18    
   2096000   156162.29    
   2097000   152980.25    
   2098000   152731.5     
   2099000   156846.41    
   2100000   153418.56    
   2101000   151686.47    
   2102000   152801.72    
   2103000   156399.79    
   2104000   153863.64    
   2105000   157351.16    
   2106000   150692.54    
   2107000   152348.15    
   2108000   154277.08    
   2109000   152524.66    
   2110000   152491.41    
   2111000   156920.77    
   2112000   152263.09    
   2113000   157200.18    
   2114000   155200.77    
   2115000   154402.7     
   2116000   150274.58    
   2117000   156506.35    
   2118000   155393.96    
   2119000   153445.07    
   2120000   154902.6     
   2121000   155680.91    
   2122000   153151.9     
   2123000   155476.99    
   2124000   155850.29    
   2125000   149127.35    
   2126000   156115.63    
   2127000   155889.42    
   2128000   154288.23    
   2129000   154785.22    
   2130000   155853.97    
   2131000   151116.01    
   2132000   150204.66    
   2133000   156322.8     
   2134000   158998.62    
   2135000   155411.07    
   2136000   154894.7     
   2137000   154068.08    
   2138000   157103.21    
   2139000   154770.02    
   2140000   153861.19    
   2141000   152045.4     
   2142000   149472.12    
   2143000   153662.56    
   2144000   151912.81    
   2145000   152531.85    
   2146000   153988.14    
   2147000   155614.17    
   2148000   151485.97    
   2149000   150134.98    
   2150000   155016.8     
   2151000   157693.45    
   2152000   155949.22    
   2153000   153808.95    
   2154000   155575.28    
   2155000   155413.55    
   2156000   155748.31    
   2157000   157733.05    
   2158000   151556.48    
   2159000   157343.79    
   2160000   155117.67    
   2161000   152166.47    
   2162000   156140.12    
   2163000   150516.47    
   2164000   155822.72    
   2165000   155783.36    
   2166000   156263.64    
   2167000   154816.07    
   2168000   152781.3     
   2169000   152289.86    
   2170000   154917.47    
   2171000   148697.48    
   2172000   151247.17    
   2173000   151361.28    
   2174000   153802.38    
   2175000   154056.53    
   2176000   155902.02    
   2177000   151746.66    
   2178000   153892.24    
   2179000   152978.82    
   2180000   151623.83    
   2181000   152568.65    
   2182000   157916.12    
   2183000   155428.79    
   2184000   157885.51    
   2185000   155969.93    
   2186000   156609.4     
   2187000   155383.22    
   2188000   157256.98    
   2189000   154271.83    
   2190000   154940.16    
   2191000   154445.02    
   2192000   147749.98    
   2193000   153778.52    
   2194000   150582.12    
   2195000   154285.73    
   2196000   151978.59    
   2197000   152919.07    
   2198000   155137.01    
   2199000   152121.61    
   2200000   150303.29    
   2201000   153065.97    
   2202000   150155.67    
   2203000   151694.22    
   2204000   153476.44    
   2205000   155087.63    
   2206000   153011.11    
   2207000   154261       
   2208000   150843.43    
   2209000   152791.1     
   2210000   153600.23    
   2211000   152877.56    
   2212000   155629.05    
   2213000   153207.09    
   2214000   157714.39    
   2215000   150915.29    
   2216000   150681.1     
   2217000   149358.37    
   2218000   152567.95    
   2219000   155173.39    
   2220000   151889.94    
   2221000   156085.45    
   2222000   155382.7     
   2223000   156745.67    
   2224000   150831.7     
   2225000   156421.19    
   2226000   150036.71    
   2227000   154508.2     
   2228000   153293.36    
   2229000   152330.71    
   2230000   150191.95    
   2231000   153360.23    
   2232000   150880.57    
   2233000   153595.43    
   2234000   151088.62    
   2235000   155731.17    
   2236000   153676.25    
   2237000   156077.84    
   2238000   152493.83    
   2239000   156831.54    
   2240000   152762.39    
   2241000   151151.97    
   2242000   152907.06    
   2243000   150154.87    
   2244000   153969       
   2245000   155686.79    
   2246000   155378.08    
   2247000   153216.93    
   2248000   151813.52    
   2249000   157659.25    
   2250000   152691.04    
   2251000   150092.85    
   2252000   155438.88    
   2253000   156521.97    
   2254000   151485.84    
   2255000   154793.81    
   2256000   153752.53    
   2257000   156610.37    
   2258000   153613.18    
   2259000   155945.04    
   2260000   155280.15    
   2261000   157240.93    
   2262000   155145.19    
   2263000   152848.28    
   2264000   150226.72    
   2265000   154413.54    
   2266000   153583.37    
   2267000   153811.81    
   2268000   155298.5     
   2269000   153185.36    
   2270000   150604.13    
   2271000   154350.91    
   2272000   150614.68    
   2273000   156751.33    
   2274000   157391.53    
   2275000   152007.58    
   2276000   156344.25    
   2277000   154434.66    
   2278000   154726.24    
   2279000   152274.3     
   2280000   153815.06    
   2281000   153437.17    
   2282000   157095.86    
   2283000   150154.42    
   2284000   156673.12    
   2285000   158047.21    
   2286000   152799.53    
   2287000   152930.97    
   2288000   152139.18    
   2289000   154148.63    
   2290000   154286.47    
   2291000   157993.69    
   2292000   154248.72    
   2293000   155173.03    
   2294000   152371.26    
   2295000   150113.36    
   2296000   157430.43    
   2297000   155011.88    
   2298000   151843.77    
   2299000   151425.7     
   2300000   155060.33    
   2301000   154832.59    
   2302000   151775.39    
   2303000   151732.73    
   2304000   153457.72    
   2305000   151902.28    
   2306000   153873.23    
   2307000   155234.91    
   2308000   157166.17    
   2309000   154770.06    
   2310000   152175.79    
   2311000   155691.73    
   2312000   154804.15    
   2313000   157936.78    
   2314000   151433.02    
   2315000   153232.47    
   2316000   148927.86    
   2317000   153399.95    
   2318000   158130.08    
   2319000   154722.66    
   2320000   155857       
   2321000   152356.64    
   2322000   155536.32    
   2323000   153634.59    
   2324000   151835.76    
   2325000   155853.7     
   2326000   154727.34    
   2327000   156077.45    
   2328000   155576.81    
   2329000   150599.24    
   2330000   156333.67    
   2331000   152786.24    
   2332000   156093.2     
   2333000   157380.09    
   2334000   154985.74    
   2335000   153760.43    
   2336000   152490.53    
   2337000   149218.28    
   2338000   152146.97    
   2339000   152469.97    
   2340000   150780.85    
   2341000   154770.78    
   2342000   152334.25    
   2343000   151365.51    
   2344000   152123.6     
   2345000   155416.95    
   2346000   154178.03    
   2347000   154232.34    
   2348000   157994.8     
   2349000   155621.89    
   2350000   151063.79    
   2351000   157288.81    
   2352000   157663.5     
   2353000   155640.07    
   2354000   154068.86    
   2355000   157775.19    
   2356000   153125.21    
   2357000   154903.75    
   2358000   153367.1     
   2359000   151847.55    
   2360000   153502.28    
   2361000   156963.61    
   2362000   155644.46    
   2363000   152034.89    
   2364000   154363.86    
   2365000   156155.7     
   2366000   154834.97    
   2367000   155969.24    
   2368000   157778.07    
   2369000   153244.19    
   2370000   154443.64    
   2371000   149724.04    
   2372000   152742.77    
   2373000   152438.58    
   2374000   151000.57    
   2375000   156805.27    
   2376000   152846.46    
   2377000   155274.43    
   2378000   156524.01    
   2379000   156242.16    
   2380000   156054.77    
   2381000   152822.98    
   2382000   152219.94    
   2383000   153858.09    
   2384000   156419.67    
   2385000   156343.98    
   2386000   148585.54    
   2387000   156749.37    
   2388000   158999.36    
   2389000   153076.89    
   2390000   157118.12    
   2391000   153110.32    
   2392000   151556.24    
   2393000   156849.71    
   2394000   154337.48    
   2395000   155498.62    
   2396000   154973.96    
   2397000   152673       
   2398000   152612.16    
   2399000   152453.06    
   2400000   153389.49    
   2401000   155683.02    
   2402000   151025.14    
   2403000   156781.93    
   2404000   156016.05    
   2405000   154136.5     
   2406000   158324.92    
   2407000   154965.4     
   2408000   152713.58    
   2409000   155837.05    
   2410000   155511.72    
   2411000   153998.48    
   2412000   154491.71    
   2413000   155274.63    
   2414000   156410.01    
   2415000   151007.96    
   2416000   155437.5     
   2417000   154929.31    
   2418000   152429.03    
   2419000   155250.26    
   2420000   156364.74    
   2421000   155321.49    
   2422000   152083.49    
   2423000   155141.54    
   2424000   155839.5     
   2425000   150214.31    
   2426000   152503.16    
   2427000   158378.93    
   2428000   155716.54    
   2429000   154956.69    
   2430000   150721.69    
   2431000   155024.55    
   2432000   157608.86    
   2433000   156321.12    
   2434000   156056.88    
   2435000   154778.86    
   2436000   153642.86    
   2437000   154531.48    
   2438000   153972.87    
   2439000   154420.6     
   2440000   157943.87    
   2441000   155457.79    
   2442000   149331.1     
   2443000   151573.72    
   2444000   156717.79    
   2445000   154307.2     
   2446000   155299.17    
   2447000   154463.81    
   2448000   152048.24    
   2449000   156067.17    
   2450000   155282.18    
   2451000   159374.06    
   2452000   154339.16    
   2453000   154970.87    
   2454000   155702.13    
   2455000   153187.78    
   2456000   157082.1     
   2457000   152647.25    
   2458000   155330.55    
   2459000   155746.18    
   2460000   155319.44    
   2461000   155093.84    
   2462000   154221.97    
   2463000   155049.08    
   2464000   157269.21    
   2465000   155211.78    
   2466000   151775.52    
   2467000   153462.25    
   2468000   153115.62    
   2469000   151872.9     
   2470000   150482.19    
   2471000   152326.15    
   2472000   152638.99    
   2473000   151679.14    
   2474000   153998.59    
   2475000   149988.32    
   2476000   153597.31    
   2477000   157437.24    
   2478000   152310.72    
   2479000   155078.39    
   2480000   152855.22    
   2481000   149655.02    
   2482000   152324.57    
   2483000   154551.27    
   2484000   152850.85    
   2485000   153737.99    
   2486000   150550.21    
   2487000   153202.34    
   2488000   158107.38    
   2489000   154040.25    
   2490000   155018.4     
   2491000   156461.85    
   2492000   151832.47    
   2493000   155431.04    
   2494000   150010.07    
   2495000   159726.8     
   2496000   158043.14    
   2497000   154462.24    
   2498000   155672.34    
   2499000   153070.21    
   2500000   153042.64    
   2501000   154574.36    
   2502000   152754.4     
   2503000   154715.97    
   2504000   152882.1     
   2505000   152127.85    
   2506000   154869.86    
   2507000   153286.62    
   2508000   152322.81    
   2509000   153671.58    
   2510000   154992.95    
   2511000   151615.67    
   2512000   151972.1     
   2513000   154128.36    
   2514000   156351.19    
   2515000   154749.17    
   2516000   152221.69    
   2517000   155573.94    
   2518000   151466.58    
   2519000   157960.54    
   2520000   154932.83    
   2521000   152625.93    
   2522000   153138.15    
   2523000   153847.72    
   2524000   154885.55    
   2525000   153448.95    
   2526000   150947.07    
   2527000   151658.44    
   2528000   152553.33    
   2529000   154414.62    
   2530000   154245.24    
   2531000   155839.58    
   2532000   154583.28    
   2533000   155590.64    
   2534000   152857.32    
   2535000   158585.3     
   2536000   149868.02    
   2537000   152931.53    
   2538000   151830.05    
   2539000   155330.86    
   2540000   155761.79    
   2541000   157769       
   2542000   152612.25    
   2543000   152479.09    
   2544000   154300.65    
   2545000   152586.62    
   2546000   155316.83    
   2547000   153391.06    
   2548000   156858.34    
   2549000   153810.68    
   2550000   156182.77    
   2551000   158126.37    
   2552000   153075.87    
   2553000   151556.07    
   2554000   156860.05    
   2555000   154444.82    
   2556000   155070.66    
   2557000   156737.14    
   2558000   158513.33    
   2559000   157845.44    
   2560000   150530.75    
   2561000   154669.91    
   2562000   155884.61    
   2563000   154511.37    
   2564000   152738.93    
   2565000   150984.35    
   2566000   154979.61    
   2567000   155737.5     
   2568000   153556.58    
   2569000   151986.55    
   2570000   153953.74    
   2571000   150780.36    
   2572000   156556.95    
   2573000   151229.84    
   2574000   156511.62    
   2575000   153408.9     
   2576000   156798.98    
   2577000   157824.41    
   2578000   159813.49    
   2579000   151233.08    
   2580000   154000.92    
   2581000   152274       
   2582000   154256.26    
   2583000   156307.06    
   2584000   154361.47    
   2585000   151732.07    
   2586000   151072.22    
   2587000   155846.73    
   2588000   157281.2     
   2589000   155770.24    
   2590000   153609.17    
   2591000   152078.58    
   2592000   149186.45    
   2593000   155099.93    
   2594000   150115.93    
   2595000   151985.76    
   2596000   155550.31    
   2597000   153982.79    
   2598000   157990.05    
   2599000   156563.42    
   2600000   158232.7     
   2601000   157616.53    
   2602000   156704.64    
   2603000   149766.26    
   2604000   150713.98    
   2605000   154205.75    
   2606000   155832.61    
   2607000   156147.97    
   2608000   156279.75    
   2609000   155141.15    
   2610000   153613.37    
   2611000   153540.25    
   2612000   154306.59    
   2613000   155611.21    
   2614000   153550.02    
   2615000   155613.17    
   2616000   151735.66    
   2617000   153617.31    
   2618000   155543.1     
   2619000   156797.91    
   2620000   151939.6     
   2621000   155030.88    
   2622000   150757.18    
   2623000   151469.44    
   2624000   157599.03    
   2625000   154161.52    
   2626000   154471.78    
   2627000   157436.38    
   2628000   153970.29    
   2629000   155514.01    
   2630000   154151.97    
   2631000   154296.75    
   2632000   151629.54    
   2633000   152159.42    
   2634000   158223.73    
   2635000   155380.23    
   2636000   157407.56    
   2637000   158085.59    
   2638000   155570.56    
   2639000   152902.81    
   2640000   153125.12    
   2641000   155495.62    
   2642000   155457.95    
   2643000   149724.37    
   2644000   151266.15    
   2645000   155715.03    
   2646000   154894.25    
   2647000   151179.12    
   2648000   153752.87    
   2649000   154058.45    
   2650000   154449.1     
   2651000   153838.74    
   2652000   155243.96    
   2653000   158775.62    
   2654000   152576.15    
   2655000   157031.07    
   2656000   150477.7     
   2657000   152619.46    
   2658000   154834.79    
   2659000   152001.22    
   2660000   155084.56    
   2661000   154132.43    
   2662000   153980.15    
   2663000   155304.76    
   2664000   156035.99    
   2665000   155437.56    
   2666000   150881.22    
   2667000   153988.63    
   2668000   151380.67    
   2669000   157395.21    
   2670000   153335.5     
   2671000   150939.94    
   2672000   151151.44    
   2673000   159011       
   2674000   154874.39    
   2675000   155453.08    
   2676000   156084.59    
   2677000   151517.78    
   2678000   156481.71    
   2679000   155116.5     
   2680000   151976.9     
   2681000   149610.81    
   2682000   154370.58    
   2683000   151070.94    
   2684000   151089.98    
   2685000   152476.87    
   2686000   153243.48    
   2687000   150774.42    
   2688000   154755.07    
   2689000   154817.64    
   2690000   153826.98    
   2691000   156424.67    
   2692000   155587.96    
   2693000   153311.91    
   2694000   153429.33    
   2695000   159400.08    
   2696000   155839.78    
   2697000   154566.57    
   2698000   155030.76    
   2699000   153547.9     
   2700000   154908.83    
   2701000   150525.47    
   2702000   154304.69    
   2703000   154491.1     
   2704000   152950.62    
   2705000   149924.37    
   2706000   153858.17    
   2707000   154619.81    
   2708000   157459.04    
   2709000   151527.03    
   2710000   155452.77    
   2711000   153327.36    
   2712000   154979.73    
   2713000   155171.45    
   2714000   153575.25    
   2715000   156103.04    
   2716000   151656.11    
   2717000   155807.45    
   2718000   153291.18    
   2719000   150347.84    
   2720000   155064.79    
   2721000   153754.72    
   2722000   154135.91    
   2723000   150182.66    
   2724000   156047.29    
   2725000   153050.38    
   2726000   152109.43    
   2727000   156217.47    
   2728000   150734.52    
   2729000   151285.01    
   2730000   154501       
   2731000   150795.67    
   2732000   158158.7     
   2733000   151763.44    
   2734000   154500.51    
   2735000   152176.79    
   2736000   153831.46    
   2737000   150515.6     
   2738000   153448.56    
   2739000   156567.77    
   2740000   156780       
   2741000   154030.08    
   2742000   152520.84    
   2743000   152125.68    
   2744000   156910.32    
   2745000   156612.91    
   2746000   152519.62    
   2747000   153832.47    
   2748000   154328.76    
   2749000   150929.34    
   2750000   155448.04    
   2751000   155054.02    
   2752000   154979.8     
   2753000   153145.78    
   2754000   156121.83    
   2755000   155527.16    
   2756000   156686.77    
   2757000   156813.42    
   2758000   153068.96    
   2759000   151885       
   2760000   154055.06    
   2761000   156145.42    
   2762000   154852.98    
   2763000   154259.63    
   2764000   154802.36    
   2765000   149253.92    
   2766000   152815.94    
   2767000   156008.75    
   2768000   157512.79    
   2769000   155450.85    
   2770000   156547.3     
   2771000   154692.68    
   2772000   153013.19    
   2773000   157907.96    
   2774000   157142.67    
   2775000   154507.15    
   2776000   156237.57    
   2777000   153241.98    
   2778000   155898.71    
   2779000   153155.26    
   2780000   155751.32    
   2781000   153102.16    
   2782000   156363.23    
   2783000   153082.41    
   2784000   152169.14    
   2785000   150892.19    
   2786000   152844.2     
   2787000   152020.41    
   2788000   152955.88    
   2789000   152921.02    
   2790000   152656.52    
   2791000   151013.82    
   2792000   152617.98    
   2793000   153159.56    
   2794000   151158.88    
   2795000   152974.42    
   2796000   156983.88    
   2797000   152659.24    
   2798000   153924.35    
   2799000   151902.72    
   2800000   151829.24    
   2801000   155905.88    
   2802000   153649.13    
   2803000   154325.74    
   2804000   151792.39    
   2805000   153328.05    
   2806000   155074.58    
   2807000   153735.75    
   2808000   152847.17    
   2809000   158414.1     
   2810000   153779.07    
   2811000   153362.56    
   2812000   152619.45    
   2813000   155294.51    
   2814000   155158.19    
   2815000   154899.74    
   2816000   151717.72    
   2817000   156074.6     
   2818000   155081.71    
   2819000   158256.17    
   2820000   157326.59    
   2821000   154664.91    
   2822000   153784.49    
   2823000   154383.19    
   2824000   152094.42    
   2825000   159343.6     
   2826000   154681.04    
   2827000   157579.46    
   2828000   155363.66    
   2829000   155595.81    
   2830000   150204.73    
   2831000   155546.61    
   2832000   158726.83    
   2833000   153954.15    
   2834000   154433.39    
   2835000   156389.04    
   2836000   152297.35    
   2837000   152645.95    
   2838000   155661.57    
   2839000   153976.19    
   2840000   153488.36    
   2841000   154238.09    
   2842000   155668.83    
   2843000   155814.55    
   2844000   155564.76    
   2845000   153599.72    
   2846000   156665.93    
   2847000   152892.12    
   2848000   152813.05    
   2849000   154253.35    
   2850000   159267.81    
   2851000   151773.22    
   2852000   151279.64    
   2853000   154716.81    
   2854000   154741.76    
   2855000   156513.65    
   2856000   155786.92    
   2857000   153715.65    
   2858000   156140.6     
   2859000   155449.26    
   2860000   156744.33    
   2861000   154349.63    
   2862000   157247.36    
   2863000   156112.02    
   2864000   152387.99    
   2865000   151278.75    
   2866000   152105.89    
   2867000   150436.3     
   2868000   150558.64    
   2869000   154200.15    
   2870000   154089.32    
   2871000   155133.12    
   2872000   156466.72    
   2873000   149827.96    
   2874000   155856.56    
   2875000   152408.98    
   2876000   152110.37    
   2877000   154274.73    
   2878000   153894.7     
   2879000   154427.92    
   2880000   148994.3     
   2881000   148757.41    
[...]
   4302000   153323.02    
   4303000   153416.89    
   4304000   153820.69    
   4305000   156084.5     
   4306000   155956.74    
   4307000   151175.4     
   4308000   154882.31    
   4309000   156751.79    
   4310000   150949.13    
   4311000   150968.13    
   4312000   152993.71    
   4313000   152126.23    
   4314000   152963.51    
   4315000   156479.82    
   4316000   151089.13    
   4317000   154823.39    
   4318000   152179.48    
   4319000   153347.29    
   4320000   153373.56    
   4321000   157402.41    
   4322000   152333.69    
   4323000   151038.34    
   4324000   153266.51    
   4325000   151883.31    
   4326000   152960.67    
   4327000   154202.68    
   4328000   155382.62    
   4329000   150831.81    
   4330000   154948.54    
   4331000   156402.09    
   4332000   151947.12    
   4333000   153432.01    
   4334000   155841.69    
   4335000   152935.71    
   4336000   148329.49    
   4337000   153777.02    
   4338000   153828.37    
   4339000   154050.54    
   4340000   155095.19    
   4341000   152897.01    
   4342000   155584.97    
   4343000   153308.94    
   4344000   156344.64    
   4345000   153126.84    
   4346000   155551.11    
   4347000   158510.18    
   4348000   156084.88    
   4349000   153751.88    
   4350000   154444.45    
   4351000   153734.75    
   4352000   155785.87    
   4353000   153726.41    
   4354000   157623.8     
   4355000   154043.84    
   4356000   153114.19    
   4357000   154011.21    
   4358000   152094.3     
   4359000   157420.55    
   4360000   153293.2     
   4361000   153726.65    
   4362000   154687.47    
   4363000   160873.09    
   4364000   159077.7     
   4365000   152790.69    
   4366000   149599.58    
   4367000   155756.57    
   4368000   150791.91    
   4369000   154564.29    
   4370000   155723.78    
   4371000   149421.68    
   4372000   152746.79    
   4373000   151631.66    
   4374000   153661.72    
   4375000   151973.44    
   4376000   152216.89    
   4377000   157463.31    
   4378000   154622.74    
   4379000   155599.36    
   4380000   153159.24    
   4381000   155845.67    
   4382000   151170.67    
   4383000   156610.64    
   4384000   153581.06    
   4385000   156662.6     
   4386000   153243.86    
   4387000   152645.87    
   4388000   153551.35    
   4389000   152306.94    
   4390000   154984.5     
   4391000   155282.21    
   4392000   155313.86    
   4393000   153597.33    
   4394000   153239.78    
   4395000   153728.03    
   4396000   152364.6     
   4397000   151530.09    
   4398000   154662.9     
   4399000   154079.19    
   4400000   153525.69    
   4401000   150126.2     
   4402000   156770.13    
   4403000   154669.12    
   4404000   152606.08    
   4405000   155368.91    
   4406000   156855.85    
   4407000   155290.82    
   4408000   149924.25    
   4409000   155551.99    
   4410000   152169.28    
   4411000   152109.05    
   4412000   153207.74    
   4413000   153623.47    
   4414000   155192.65    
   4415000   151788.8     
   4416000   154057.79    
   4417000   151132.47    
   4418000   154467.45    
   4419000   155118.31    
   4420000   153776.61    
   4421000   155829.08    
   4422000   156325.57    
   4423000   154401.62    
   4424000   153842.39    
   4425000   152593.87    
   4426000   153797.56    
   4427000   153206.42    
   4428000   151984.67    
   4429000   154547.65    
   4430000   150565.16    
   4431000   154258.86    
   4432000   154307.72    
   4433000   156679.55    
   4434000   154503.35    
   4435000   149221.5     
   4436000   151249.78    
   4437000   156042.88    
   4438000   154764.04    
   4439000   153602.14    
   4440000   151151.68    
   4441000   154625.14    
   4442000   151511.02    
   4443000   160373.51    
   4444000   151884.18    
   4445000   154199.13    
   4446000   155844.1     
   4447000   153095.33    
   4448000   153645.01    
   4449000   156948.77    
   4450000   151253.71    
   4451000   149874.57    
   4452000   154866.36    
   4453000   154028.63    
   4454000   155885.56    
   4455000   154609.3     
   4456000   152610.86    
   4457000   151797.09    
   4458000   158221.1     
   4459000   158893.43    
   4460000   153486.81    
   4461000   153934.37    
   4462000   153882.67    
   4463000   154852.18    
   4464000   151474.05    
   4465000   155898.02    
   4466000   152791.26    
   4467000   155859.36    
   4468000   154181.22    
   4469000   153880.63    
   4470000   155407.14    
   4471000   156182.29    
   4472000   150721.49    
   4473000   153164.54    
   4474000   153151.13    
   4475000   155157.58    
   4476000   154390.52    
   4477000   155119.6     
   4478000   155202.54    
   4479000   156986.25    
   4480000   152328.49    
   4481000   150856.39    
   4482000   155925.97    
   4483000   155627.72    
   4484000   153794.06    
   4485000   151820.28    
   4486000   155173.94    
   4487000   156275.84    
   4488000   154821.33    
   4489000   152838.86    
   4490000   148263.98    
   4491000   156692.04    
   4492000   153585.97    
   4493000   155776.37    
   4494000   151449.59    
   4495000   150575.47    
   4496000   154993.36    
   4497000   152382.11    
   4498000   156627.18    
   4499000   151768.74    
   4500000   155476.54    
   4501000   155243.33    
   4502000   154007.71    
   4503000   152585.27    
   4504000   156221.94    
   4505000   150150.22    
   4506000   157307.33    
   4507000   155273.87    
   4508000   154441.67    
   4509000   153502.65    
   4510000   155348.26    
   4511000   153130.45    
   4512000   152832.85    
   4513000   153347.53    
   4514000   155033.72    
   4515000   157463.95    
   4516000   158318.37    
   4517000   153923.4     
   4518000   157732.25    
   4519000   157248.44    
   4520000   161333.75    
   4521000   152305.77    
   4522000   152689.67    
   4523000   152850.63    
   4524000   155510.44    
   4525000   160351.53    
   4526000   154837.72    
   4527000   150745.1     
   4528000   153496.7     
   4529000   152166.66    
   4530000   156508.77    
   4531000   152512.86    
   4532000   157672.8     
   4533000   153356.72    
   4534000   157011.95    
   4535000   152101.44    
   4536000   153722.6     
   4537000   155770.46    
   4538000   151481.81    
   4539000   150722.26    
   4540000   154649.4     
   4541000   154545.59    
   4542000   150846.99    
   4543000   153155.44    
   4544000   154877.54    
   4545000   156750.43    
   4546000   153544.69    
   4547000   153522.87    
   4548000   153012.87    
   4549000   155190.66    
   4550000   153282.74    
   4551000   153578.93    
   4552000   155819.41    
   4553000   151019.1     
   4554000   154745.46    
   4555000   154662.71    
   4556000   154653.49    
   4557000   154083.11    
   4558000   151654.68    
   4559000   153708.45    
   4560000   150489.37    
   4561000   155145.44    
   4562000   153071.98    
   4563000   156864.12    
   4564000   154830.79    
   4565000   152029.57    
   4566000   156364.8     
   4567000   154241.6     
   4568000   152368.08    
   4569000   154591.4     
   4570000   155175.13    
   4571000   151748.78    
   4572000   156503.25    
   4573000   151500.35    
   4574000   153136.01    
   4575000   151909.81    
   4576000   154885.45    
   4577000   151331.68    
   4578000   155262.09    
   4579000   155051.88    
   4580000   154783.29    
   4581000   152442.19    
   4582000   157753.56    
   4583000   153190.29    
   4584000   151592.97    
   4585000   149058.45    
   4586000   153925.39    
   4587000   155384.62    
   4588000   150267.23    
   4589000   154558.29    
   4590000   152088.72    
   4591000   155816.89    
   4592000   149479.9     
   4593000   151614.03    
   4594000   155645.89    
   4595000   153500.26    
   4596000   154928.9     
   4597000   155644.19    
   4598000   153935.18    
   4599000   154946.86    
   4600000   152189.59    
   4601000   157442.09    
   4602000   153022.66    
   4603000   152966.25    
   4604000   158000.82    
   4605000   153647.19    
   4606000   150840.9     
   4607000   154466.26    
   4608000   155251.39    
   4609000   149920.44    
   4610000   154335.89    
   4611000   157932.6     
   4612000   154693.84    
   4613000   154562.4     
   4614000   157517.24    
   4615000   152953.63    
   4616000   152589.65    
   4617000   154272.09    
   4618000   153491.48    
   4619000   154948.7     
   4620000   151856.04    
   4621000   149510.81    
   4622000   156489.48    
   4623000   154722.56    
   4624000   157370.48    
   4625000   153392.04    
   4626000   160718.18    
   4627000   153871.66    
   4628000   158446.31    
   4629000   155347.45    
   4630000   155609.49    
   4631000   157374.56    
   4632000   154492.92    
   4633000   152846.48    
   4634000   154896.9     
   4635000   154672.35    
   4636000   156494.83    
   4637000   155495.4     
   4638000   155001.67    
   4639000   155763.44    
   4640000   153730.95    
   4641000   154864.78    
   4642000   155671.65    
   4643000   154171.77    
   4644000   151412.14    
   4645000   154820.48    
   4646000   155422.56    
   4647000   154450.79    
   4648000   154848.42    
   4649000   154021.72    
   4650000   152590.9     
   4651000   154249.29    
   4652000   150018.67    
   4653000   150904.95    
   4654000   158290.77    
   4655000   154593.64    
   4656000   150736.24    
   4657000   155291.47    
   4658000   156436.42    
   4659000   155102.63    
   4660000   160296.43    
   4661000   157540.46    
   4662000   153179.48    
   4663000   153870.68    
   4664000   149889.36    
   4665000   152946.06    
   4666000   150835.06    
   4667000   149285.37    
   4668000   156280.98    
   4669000   155515.49    
   4670000   159118.74    
   4671000   153712.65    
   4672000   155285.93    
   4673000   149902.08    
   4674000   154783.69    
   4675000   154327.38    
   4676000   154601.16    
   4677000   154386.09    
   4678000   156965.25    
   4679000   152860.28    
   4680000   153233.41    
   4681000   157469.96    
   4682000   152437.85    
   4683000   153468.68    
   4684000   155489.45    
   4685000   152855.54    
   4686000   158944.28    
   4687000   156546.27    
   4688000   154677.21    
   4689000   153265.52    
   4690000   154702.26    
   4691000   156707.14    
   4692000   152430.32    
   4693000   154347.02    
   4694000   155386.87    
   4695000   157170.83    
   4696000   149263.63    
   4697000   149378.08    
   4698000   153528.17    
   4699000   152541.83    
   4700000   154839.32    
   4701000   155259.49    
   4702000   154828.38    
   4703000   151938.54    
   4704000   153853.36    
   4705000   158942.39    
   4706000   154921.21    
   4707000   155098.39    
   4708000   156561.35    
   4709000   153282.76    
   4710000   150832.31    
   4711000   153633.3     
   4712000   155404.64    
   4713000   151637.9     
   4714000   153713.21    
   4715000   158182.86    
   4716000   155840.77    
   4717000   151836.33    
   4718000   156038.03    
   4719000   154208.75    
   4720000   155632.3     
   4721000   154244.22    
   4722000   152931.59    
   4723000   154439       
   4724000   152709.64    
   4725000   156132.67    
   4726000   155072.93    
   4727000   153683.44    
   4728000   150695.83    
   4729000   155141.07    
   4730000   152767.43    
   4731000   154085.01    
   4732000   149648.51    
   4733000   151728.09    
   4734000   155252.61    
   4735000   152339.45    
   4736000   151342.88    
   4737000   157259.78    
   4738000   151680.73    
   4739000   155728.3     
   4740000   155458.82    
   4741000   152090.32    
   4742000   154958.81    
   4743000   153378.5     
   4744000   155138.9     
   4745000   153663.37    
   4746000   154311.55    
   4747000   156012.14    
   4748000   155481.11    
   4749000   155465.14    
   4750000   153264.31    
   4751000   150607.55    
   4752000   154932.17    
   4753000   155170.22    
   4754000   153120.92    
   4755000   153261.71    
   4756000   156645.87    
   4757000   155114.92    
   4758000   157654.56    
   4759000   154388.23    
   4760000   154572.3     
   4761000   153748.32    
   4762000   159023.89    
   4763000   154982.16    
   4764000   153181.66    
   4765000   152281.78    
   4766000   150752.5     
   4767000   157698.69    
   4768000   151423.74    
   4769000   154091.87    
   4770000   157155.66    
   4771000   157736.98    
   4772000   153282.31    
   4773000   153590.48    
   4774000   151485.55    
   4775000   154856.19    
   4776000   150885.2     
   4777000   156532.87    
   4778000   154877.8     
   4779000   154665.71    
   4780000   156264.77    
   4781000   151076.07    
   4782000   157381.07    
   4783000   152743.33    
   4784000   152951.77    
   4785000   153903.15    
   4786000   150910.65    
   4787000   154344.33    
   4788000   148886.1     
   4789000   154881.82    
   4790000   157274.13    
   4791000   153783.56    
   4792000   156776.19    
   4793000   156638.56    
   4794000   153569.84    
   4795000   156028.26    
   4796000   151984.73    
   4797000   155157.64    
   4798000   153308.68    
   4799000   151667.27    
   4800000   152865.68    
   4801000   156951.76    
   4802000   155213.12    
   4803000   153276.23    
   4804000   153731.03    
   4805000   152070.52    
   4806000   153540.52    
   4807000   155449.64    
   4808000   155772.94    
   4809000   152295.02    
   4810000   157087.52    
   4811000   156679.91    
   4812000   151396.07    
   4813000   151652.54    
   4814000   151984.95    
   4815000   150652.78    
   4816000   153345.5     
   4817000   156206.14    
   4818000   156286.65    
   4819000   155347.8     
   4820000   156367.48    
   4821000   152644.09    
   4822000   155516.78    
   4823000   153666.86    
   4824000   156645.11    
   4825000   152965.4     
   4826000   154829.54    
   4827000   155387.15    
   4828000   149967.27    
   4829000   152239.66    
   4830000   156464.44    
   4831000   153267.18    
   4832000   158320.13    
   4833000   157186.6     
   4834000   152464.16    
   4835000   154138.07    
   4836000   155597.27    
   4837000   153228.08    
   4838000   151666.2     
   4839000   150503.03    
   4840000   158248.19    
   4841000   154200.18    
   4842000   150773.31    
   4843000   154845.3     
   4844000   155501.78    
   4845000   153354.74    
   4846000   155071.29    
   4847000   155785.62    
   4848000   150967.22    
   4849000   153083.02    
   4850000   152571.55    
   4851000   153609.16    
   4852000   154243.38    
   4853000   157461.77    
   4854000   156989.07    
   4855000   153023.34    
   4856000   158441.36    
   4857000   153596.54    
   4858000   157508.11    
   4859000   153461.58    
   4860000   151004.91    
   4861000   153752.11    
   4862000   150527.37    
   4863000   153377.33    
   4864000   158919.26    
   4865000   151298.54    
   4866000   154577.44    
   4867000   154870.31    
   4868000   155160.21    
   4869000   157846.11    
   4870000   151385.15    
   4871000   153530.27    
   4872000   155989.94    
   4873000   156857.95    
   4874000   153851.58    
   4875000   155325.3     
   4876000   153893.17    
   4877000   153826.76    
   4878000   153435.01    
   4879000   152288.24    
   4880000   156474.38    
   4881000   158035.55    
   4882000   152618.82    
   4883000   155326.69    
   4884000   151065.95    
   4885000   152149.76    
   4886000   152220.95    
   4887000   155405.8     
   4888000   154153.39    
   4889000   154104.97    
   4890000   153379.89    
   4891000   152394.61    
   4892000   153111.73    
   4893000   152771.68    
   4894000   154820.78    
   4895000   150785.8     
   4896000   155195.83    
   4897000   156936.36    
   4898000   153494.38    
   4899000   153858.29    
   4900000   155087.29    
   4901000   152534.26    
   4902000   153893.37    
   4903000   151828.96    
   4904000   154196.92    
   4905000   155679.5     
   4906000   154136.24    
   4907000   158517.67    
   4908000   159696.58    
   4909000   155221.11    
   4910000   152259.72    
   4911000   157430.49    
   4912000   157408.68    
   4913000   155361.48    
   4914000   150116.66    
   4915000   154971.55    
   4916000   154550.28    
   4917000   148987.61    
   4918000   153342.99    
   4919000   154077.5     
   4920000   153917.07    
   4921000   155945.67    
   4922000   161585.4     
   4923000   155033.57    
   4924000   157082.67    
   4925000   157653.67    
   4926000   155137.45    
   4927000   151729.92    
   4928000   152688.82    
   4929000   152906.84    
   4930000   155095.19    
   4931000   157496.27    
   4932000   156580.6     
   4933000   152681.45    
   4934000   157044.14    
   4935000   151960.92    
   4936000   153204.46    
   4937000   153653.28    
   4938000   154826.65    
   4939000   151878.09    
   4940000   155704.31    
   4941000   150642.53    
   4942000   155324.34    
   4943000   156476.41    
   4944000   151906.61    
   4945000   155026.74    
   4946000   152761.6     
   4947000   150573.98    
   4948000   156699.74    
   4949000   152605.67    
   4950000   153797.57    
   4951000   151458.32    
   4952000   154511.42    
   4953000   153020.98    
   4954000   153234.3     
   4955000   154455.35    
   4956000   153434.49    
   4957000   155324.51    
   4958000   153131.44    
   4959000   152179.43    
   4960000   157615.13    
   4961000   154658.05    
   4962000   157194.38    
   4963000   154022.56    
   4964000   155357.93    
   4965000   153441.61    
   4966000   156617.92    
   4967000   152742.35    
   4968000   154021.29    
   4969000   156558.32    
   4970000   152818.61    
   4971000   155503.75    
   4972000   150663.01    
   4973000   154981.58    
   4974000   156874.87    
   4975000   155568.92    
   4976000   152654.5     
   4977000   153422.19    
   4978000   153555.95    
   4979000   154159.16    
   4980000   152995.78    
   4981000   154533.79    
   4982000   154710.89    
   4983000   160007.64    
   4984000   153000.74    
   4985000   156180.61    
   4986000   153867.74    
   4987000   157634.25    
   4988000   153002.78    
   4989000   156359.95    
   4990000   153450.01    
   4991000   159226.39    
   4992000   155567.99    
   4993000   152443.95    
   4994000   160936.39    
   4995000   158976.86    
   4996000   151202.9     
   4997000   154356.56    
   4998000   153477.89    
   4999000   156093.28    
   5000000   155951.27    
Loop time of 594.588 on 6 procs for 5000000 steps with 3200 atoms

Performance: 7265.541 tau/day, 8409.191 timesteps/s
99.5% CPU use with 6 MPI tasks x no OpenMP threads

MPI task timing breakdown:
Section |  min time  |  avg time  |  max time  |%varavg| %total
---------------------------------------------------------------
Pair    | 65.654     | 70.704     | 77.004     |  51.5 | 11.89
Neigh   | 11.364     | 12.01      | 12.694     |  15.9 |  2.02
Comm    | 113.64     | 120.39     | 127.26     |  52.7 | 20.25
Output  | 0.82751    | 0.82949    | 0.83809    |   0.4 |  0.14
Modify  | 278.26     | 292.36     | 318.19     |  76.8 | 49.17
Other   |            | 98.3       |            |       | 16.53

Nlocal:        533.333 ave         539 max         518 min
Histogram: 1 0 0 0 0 0 0 1 1 3
Nghost:        577.333 ave         594 max         563 min
Histogram: 3 0 0 0 0 0 0 1 1 1
Neighs:        1122.17 ave        1179 max        1082 min
Histogram: 1 1 0 2 0 0 1 0 0 1

Total # of neighbors = 6733
Ave neighs/atom = 2.1040625
Neighbor list builds = 68433
Dangerous builds = 0
Total wall time: 0:09:54
